Program Version,EnergyPlus, Version 9.1.0-fafb9d5652, YMD=2019.11.04 14:44
1,5,Environment Title[],Latitude[deg],Longitude[deg],Time Zone[],Elevation[m]
2,8,Day of Simulation[],Month[],Day of Month[],DST Indicator[1=yes 0=no],Hour[],StartMinute[],EndMinute[],DayType
3,5,Cumulative Day of Simulation[],Month[],Day of Month[],DST Indicator[1=yes 0=no],DayType  ! When Daily Report Variables Requested
4,2,Cumulative Days of Simulation[],Month[]  ! When Monthly Report Variables Requested
5,1,Cumulative Days of Simulation[] ! When Run Period Report Variables Requested
6,1,Calendar Year of Simulation[] ! When Annual Report Variables Requested
7,9,Environment,Site Outdoor Air Drybulb Temperature [C] !Monthly [Value,Min,Day,Hour,Minute,Max,Day,Hour,Minute]
8,1,Environment,Site Outdoor Air Wetbulb Temperature [C] !TimeStep
1125,1,SP-STORY 1 EAST LOWER PERIMETER SPACE SYS-1 FLR-1 SCH-F HPLCMT-EAST ZN,Zone Air Temperature [C] !Hourly
1126,7,SP-STORY 1 EAST LOWER PERIMETER SPACE SYS-1 FLR-1 SCH-F HPLCMT-EAST ZN,Zone Air Relative Humidity [%] !Daily [Value,Min,Hour,Minute,Max,Hour,Minute]
1165,1,SP-STORY 1 EAST UPPER PERIMETER SPACE SYS-1 FLR-1 SCH-F HPLCMT-EAST ZN,Zone Air Temperature [C] !Hourly
1166,7,SP-STORY 1 EAST UPPER PERIMETER SPACE SYS-1 FLR-1 SCH-F HPLCMT-EAST ZN,Zone Air Relative Humidity [%] !Daily [Value,Min,Hour,Minute,Max,Hour,Minute]
1205,1,SP-STORY 1 NORTH CORE SPACE SYS-1 FLR-1 SCH-F HPLCMT-SOUTH ZN,Zone Air Temperature [C] !Hourly
1206,7,SP-STORY 1 NORTH CORE SPACE SYS-1 FLR-1 SCH-F HPLCMT-SOUTH ZN,Zone Air Relative Humidity [%] !Daily [Value,Min,Hour,Minute,Max,Hour,Minute]
1245,1,SP-STORY 1 NORTH PERIMETER SPACE SYS-1 FLR-1 SCH-F HPLCMT-NORTH ZN,Zone Air Temperature [C] !Hourly
1246,7,SP-STORY 1 NORTH PERIMETER SPACE SYS-1 FLR-1 SCH-F HPLCMT-NORTH ZN,Zone Air Relative Humidity [%] !Daily [Value,Min,Hour,Minute,Max,Hour,Minute]
1285,1,SP-STORY 1 SOUTH CORE SPACE SYS-1 FLR-1 SCH-F HPLCMT-NORTH ZN,Zone Air Temperature [C] !Hourly
1286,7,SP-STORY 1 SOUTH CORE SPACE SYS-1 FLR-1 SCH-F HPLCMT-NORTH ZN,Zone Air Relative Humidity [%] !Daily [Value,Min,Hour,Minute,Max,Hour,Minute]
1325,1,SP-STORY 1 SOUTH LOWER PERIMETER SPACE SYS-1 FLR-1 SCH-F HPLCMT-SOUTH ZN,Zone Air Temperature [C] !Hourly
1326,7,SP-STORY 1 SOUTH LOWER PERIMETER SPACE SYS-1 FLR-1 SCH-F HPLCMT-SOUTH ZN,Zone Air Relative Humidity [%] !Daily [Value,Min,Hour,Minute,Max,Hour,Minute]
1365,1,SP-STORY 1 SOUTH UPPER LEFT PERIMETER SPACE 1 SYS-1 FLR-1 SCH-F HPLCMT-NORTH ZN,Zone Air Temperature [C] !Hourly
1366,7,SP-STORY 1 SOUTH UPPER LEFT PERIMETER SPACE 1 SYS-1 FLR-1 SCH-F HPLCMT-NORTH ZN,Zone Air Relative Humidity [%] !Daily [Value,Min,Hour,Minute,Max,Hour,Minute]
1405,1,SP-STORY 1 SOUTH UPPER LEFT PERIMETER SPACE SYS-1 FLR-1 SCH-F HPLCMT-NORTH ZN,Zone Air Temperature [C] !Hourly
1406,7,SP-STORY 1 SOUTH UPPER LEFT PERIMETER SPACE SYS-1 FLR-1 SCH-F HPLCMT-NORTH ZN,Zone Air Relative Humidity [%] !Daily [Value,Min,Hour,Minute,Max,Hour,Minute]
1445,1,SP-STORY 1 WEST LOWER PERIMETER SPACE SYS-1 FLR-1 SCH-F HPLCMT-WEST ZN,Zone Air Temperature [C] !Hourly
1446,7,SP-STORY 1 WEST LOWER PERIMETER SPACE SYS-1 FLR-1 SCH-F HPLCMT-WEST ZN,Zone Air Relative Humidity [%] !Daily [Value,Min,Hour,Minute,Max,Hour,Minute]
1485,1,SP-STORY 1 WEST UPPER PERIMETER SPACE SYS-1 FLR-1 SCH-F HPLCMT-WEST ZN,Zone Air Temperature [C] !Hourly
1486,7,SP-STORY 1 WEST UPPER PERIMETER SPACE SYS-1 FLR-1 SCH-F HPLCMT-WEST ZN,Zone Air Relative Humidity [%] !Daily [Value,Min,Hour,Minute,Max,Hour,Minute]
1525,1,SP-STORY 2 EAST LOWER PERIMETER SPACE SYS-1 FLR-2 SCH-F HPLCMT-EAST ZN,Zone Air Temperature [C] !Hourly
1526,7,SP-STORY 2 EAST LOWER PERIMETER SPACE SYS-1 FLR-2 SCH-F HPLCMT-EAST ZN,Zone Air Relative Humidity [%] !Daily [Value,Min,Hour,Minute,Max,Hour,Minute]
1565,1,SP-STORY 2 EAST UPPER PERIMETER SPACE SYS-1 FLR-2 SCH-F HPLCMT-EAST ZN,Zone Air Temperature [C] !Hourly
1566,7,SP-STORY 2 EAST UPPER PERIMETER SPACE SYS-1 FLR-2 SCH-F HPLCMT-EAST ZN,Zone Air Relative Humidity [%] !Daily [Value,Min,Hour,Minute,Max,Hour,Minute]
1605,1,SP-STORY 2 NORTH CORE SPACE SYS-1 FLR-2 SCH-F HPLCMT-SOUTH ZN,Zone Air Temperature [C] !Hourly
1606,7,SP-STORY 2 NORTH CORE SPACE SYS-1 FLR-2 SCH-F HPLCMT-SOUTH ZN,Zone Air Relative Humidity [%] !Daily [Value,Min,Hour,Minute,Max,Hour,Minute]
1645,1,SP-STORY 2 NORTH PERIMETER SPACE SYS-1 FLR-2 SCH-F HPLCMT-NORTH ZN,Zone Air Temperature [C] !Hourly
1646,7,SP-STORY 2 NORTH PERIMETER SPACE SYS-1 FLR-2 SCH-F HPLCMT-NORTH ZN,Zone Air Relative Humidity [%] !Daily [Value,Min,Hour,Minute,Max,Hour,Minute]
1685,1,SP-STORY 2 SOUTH CORE SPACE SYS-1 FLR-2 SCH-F HPLCMT-NORTH ZN,Zone Air Temperature [C] !Hourly
1686,7,SP-STORY 2 SOUTH CORE SPACE SYS-1 FLR-2 SCH-F HPLCMT-NORTH ZN,Zone Air Relative Humidity [%] !Daily [Value,Min,Hour,Minute,Max,Hour,Minute]
1725,1,SP-STORY 2 SOUTH LOWER PERIMETER SPACE SYS-1 FLR-2 SCH-F HPLCMT-SOUTH ZN,Zone Air Temperature [C] !Hourly
1726,7,SP-STORY 2 SOUTH LOWER PERIMETER SPACE SYS-1 FLR-2 SCH-F HPLCMT-SOUTH ZN,Zone Air Relative Humidity [%] !Daily [Value,Min,Hour,Minute,Max,Hour,Minute]
1765,1,SP-STORY 2 SOUTH UPPER LEFT PERIMETER SPACE 1 SYS-1 FLR-2 SCH-F HPLCMT-NORTH ZN,Zone Air Temperature [C] !Hourly
1766,7,SP-STORY 2 SOUTH UPPER LEFT PERIMETER SPACE 1 SYS-1 FLR-2 SCH-F HPLCMT-NORTH ZN,Zone Air Relative Humidity [%] !Daily [Value,Min,Hour,Minute,Max,Hour,Minute]
1805,1,SP-STORY 2 SOUTH UPPER LEFT PERIMETER SPACE SYS-1 FLR-2 SCH-F HPLCMT-NORTH ZN,Zone Air Temperature [C] !Hourly
1806,7,SP-STORY 2 SOUTH UPPER LEFT PERIMETER SPACE SYS-1 FLR-2 SCH-F HPLCMT-NORTH ZN,Zone Air Relative Humidity [%] !Daily [Value,Min,Hour,Minute,Max,Hour,Minute]
1845,1,SP-STORY 2 WEST LOWER PERIMETER SPACE SYS-1 FLR-2 SCH-F HPLCMT-WEST ZN,Zone Air Temperature [C] !Hourly
1846,7,SP-STORY 2 WEST LOWER PERIMETER SPACE SYS-1 FLR-2 SCH-F HPLCMT-WEST ZN,Zone Air Relative Humidity [%] !Daily [Value,Min,Hour,Minute,Max,Hour,Minute]
1885,1,SP-STORY 2 WEST UPPER PERIMETER SPACE SYS-1 FLR-2 SCH-F HPLCMT-WEST ZN,Zone Air Temperature [C] !Hourly
1886,7,SP-STORY 2 WEST UPPER PERIMETER SPACE SYS-1 FLR-2 SCH-F HPLCMT-WEST ZN,Zone Air Relative Humidity [%] !Daily [Value,Min,Hour,Minute,Max,Hour,Minute]
10,1,Electricity:Facility [J] !TimeStep
891,1,Gas:Facility [J] !TimeStep
End of Data Dictionary
1,OTTAWA=MACDONALD-CARTIER INTL ANN CLG .4% CONDNS DB=>MWB,  45.32, -75.67,  -5.00, 114.90
2,1, 7,21, 0, 1, 0.00,10.00,SummerDesignDay
8,19.2840458690032
10,67575211.36575513
891,64169426.544648718
2,1, 7,21, 0, 1,10.00,20.00,SummerDesignDay
8,19.25220058801155
10,62949315.300288047
891,126981187.79987447
2,1, 7,21, 0, 1,20.00,30.00,SummerDesignDay
8,19.2203165671003
10,61891369.50862811
891,110563653.27095902
2,1, 7,21, 0, 1,30.00,40.00,SummerDesignDay
8,19.188388626363016
10,61065469.54360369
891,80086918.53406644
2,1, 7,21, 0, 1,40.00,50.00,SummerDesignDay
8,19.15642770709394
10,60263351.37291233
891,127021130.53381391
2,1, 7,21, 0, 1,50.00,60.00,SummerDesignDay
8,19.124427397166604
10,59415993.803944367
891,76403631.9741378
2,1, 7,21, 0, 1, 0.00,60.00,SummerDesignDay
1125,23.878346519341347
1165,23.880160852023648
1205,23.859747312096308
1245,23.87472787160604
1285,23.858388220579898
1325,23.87890855282224
1365,23.88071744703433
1405,23.8809136725644
1445,23.882881260840759
1485,23.88488588823438
1525,23.881134409177194
1565,23.882618213670758
1605,23.86493850843021
1645,23.878961552940554
1685,23.864485415495368
1725,23.881876448948007
1765,23.88329896884701
1805,23.88348344434193
1845,23.883452968651257
1885,23.884984552945658
2,1, 7,21, 0, 2, 0.00,10.00,SummerDesignDay
8,19.103070457286994
10,47079525.05469151
891,104944556.59189919
2,1, 7,21, 0, 2,10.00,20.00,SummerDesignDay
8,19.08170119193842
10,42724440.311938527
891,57837277.27232215
2,1, 7,21, 0, 2,20.00,30.00,SummerDesignDay
8,19.06030939273045
10,41864096.33249974
891,57845369.969710458
2,1, 7,21, 0, 2,30.00,40.00,SummerDesignDay
8,19.03890076386851
10,41087973.064746808
891,57856199.6620684
2,1, 7,21, 0, 2,40.00,50.00,SummerDesignDay
8,19.01747444558601
10,40294493.258296769
891,57867174.772925388
2,1, 7,21, 0, 2,50.00,60.00,SummerDesignDay
8,18.996036037989819
10,39533032.06062797
891,57878228.22371411
2,1, 7,21, 0, 2, 0.00,60.00,SummerDesignDay
1125,23.87685305725105
1165,23.878754048146097
1205,23.858074580425894
1245,23.872168152436016
1285,23.856050514612947
1325,23.87733031585657
1365,23.880053982119749
1405,23.880377391476917
1445,23.88115680030538
1485,23.88284577117436
1525,23.87974396946794
1565,23.881252293081244
1605,23.863684605590426
1645,23.87730421271159
1685,23.863160484110187
1725,23.88046238606995
1765,23.882251439566074
1805,23.882496298560868
1845,23.882621416722875
1885,23.884176199199744
2,1, 7,21, 0, 3, 0.00,10.00,SummerDesignDay
8,18.97994058577143
10,38880399.496301319
891,55708099.90723132
2,1, 7,21, 0, 3,10.00,20.00,SummerDesignDay
8,18.96383509390068
10,36421048.38399949
891,9257745.24527259
2,1, 7,21, 0, 3,20.00,30.00,SummerDesignDay
8,18.947724870466826
10,35787570.92621493
891,46259854.66242686
2,1, 7,21, 0, 3,30.00,40.00,SummerDesignDay
8,18.931599991201066
10,35179995.88770113
891,55367032.43717796
2,1, 7,21, 0, 3,40.00,50.00,SummerDesignDay
8,18.915470425479847
10,34526797.80983643
891,55479606.195890378
2,1, 7,21, 0, 3,50.00,60.00,SummerDesignDay
8,18.8993255989201
10,33867775.012015428
891,165819.7039602618
2,1, 7,21, 0, 3, 0.00,60.00,SummerDesignDay
1125,23.87523670893924
1165,23.877206633739339
1205,23.856168863013325
1245,23.86812599968464
1285,23.852214996274414
1325,23.875515724678839
1365,23.878791331817014
1405,23.879215233941055
1445,23.880442931260274
1485,23.88226138724247
1525,23.878526081482268
1565,23.88001885344084
1605,23.8628338935662
1645,23.875815985266788
1685,23.862276938507624
1725,23.879181529339538
1765,23.88109789955368
1805,23.881400122132633
1845,23.881678511152683
1885,23.88324162189974
2,1, 7,21, 0, 4, 0.00,10.00,SummerDesignDay
8,18.883176400800605
10,21640728.967697406
891,53122147.37095591
2,1, 7,21, 0, 4,10.00,20.00,SummerDesignDay
8,18.867011710849643
10,19679698.57949148
891,165819.7039602618
2,1, 7,21, 0, 4,20.00,30.00,SummerDesignDay
8,18.850837592647797
10,19061469.471312047
891,53299306.02197431
2,1, 7,21, 0, 4,30.00,40.00,SummerDesignDay
8,18.834658360362007
10,18659514.81736176
891,165819.7039602618
2,1, 7,21, 0, 4,40.00,50.00,SummerDesignDay
8,18.8184648850153
10,18201491.348202256
891,165819.7039602618
2,1, 7,21, 0, 4,50.00,60.00,SummerDesignDay
8,18.8022655410338
10,17737108.158145299
891,53050895.27435555
2,1, 7,21, 0, 4, 0.00,60.00,SummerDesignDay
1125,23.872654512333424
1165,23.87489784070648
1205,23.85219907445718
1245,23.86851050527204
1285,23.852452248718838
1325,23.871683474781397
1365,23.87661857371258
1405,23.877299922761979
1445,23.879317823201978
1485,23.881208736124749
1525,23.87712132044692
1565,23.878601913184345
1605,23.827860177913185
1645,23.80044185070435
1685,23.822514671702647
1725,23.87594789692884
1765,23.80878594929037
1805,23.82719149346904
1845,23.880638836071275
1885,23.882203401137088
2,1, 7,21, 0, 5, 0.00,10.00,SummerDesignDay
8,18.79145567867417
10,17394289.978096419
891,165819.7039602618
2,1, 7,21, 0, 5,10.00,20.00,SummerDesignDay
8,18.780646332866213
10,17054446.99025298
891,53401386.603505659
2,1, 7,21, 0, 5,20.00,30.00,SummerDesignDay
8,18.76983296444122
10,16705845.249635006
891,165819.7039602618
2,1, 7,21, 0, 5,30.00,40.00,SummerDesignDay
8,18.75901007085189
10,16656817.775498668
891,165819.7039602618
2,1, 7,21, 0, 5,40.00,50.00,SummerDesignDay
8,18.7481869937485
10,17470095.51789447
891,53185043.64226687
2,1, 7,21, 0, 5,50.00,60.00,SummerDesignDay
8,18.737365749092537
10,19020956.864992005
891,165819.7039602618
2,1, 7,21, 0, 5, 0.00,60.00,SummerDesignDay
1125,23.870548494056153
1165,23.872955392447193
1205,23.85262530176557
1245,23.868821277933493
1285,23.852902828935425
1325,23.869922272993077
1365,23.87438922910259
1405,23.875265758159228
1445,23.877935610574139
1485,23.87987538037348
1525,23.870971970315265
1565,23.87435170686726
1605,23.737276301663
1645,23.713817412906498
1685,23.73447154831797
1725,23.821377421123075
1765,23.70015192165535
1805,23.727244199447858
1845,23.879488001287695
1885,23.881035069104287
2,1, 7,21, 0, 6, 0.00,10.00,SummerDesignDay
8,18.7481869937485
10,23198067.026044948
891,55191669.1950385
2,1, 7,21, 0, 6,10.00,20.00,SummerDesignDay
8,18.75901007085189
10,26937150.44115816
891,55534169.5690094
2,1, 7,21, 0, 6,20.00,30.00,SummerDesignDay
8,18.76983296444122
10,30026122.802173374
891,165819.7039602618
2,1, 7,21, 0, 6,30.00,40.00,SummerDesignDay
8,18.780646332866213
10,34715875.411348249
891,55345715.122567478
2,1, 7,21, 0, 6,40.00,50.00,SummerDesignDay
8,18.79145567867417
10,36526582.285394597
891,55437873.37656558
2,1, 7,21, 0, 6,50.00,60.00,SummerDesignDay
8,18.8022655410338
10,39316920.68341556
891,55543157.372198108
2,1, 7,21, 0, 6, 0.00,60.00,SummerDesignDay
1125,23.884816111350749
1165,23.887760588031516
1205,23.852568958826806
1245,23.87861924130935
1285,23.85235125861821
1325,23.87242160230463
1365,23.88317638086043
1405,23.883234252647204
1445,23.87781152297661
1485,23.879864129569
1525,23.888165873717484
1565,23.890349629336958
1605,23.83137794494417
1645,23.88231356052344
1685,23.83932962135835
1725,23.87759111757387
1765,23.885631893287309
1805,23.885650905716657
1845,23.880839215726185
1885,23.882441761484015
2,1, 7,21, 0, 7, 0.00,10.00,SummerDesignDay
8,18.840052605786814
10,53831263.46675473
891,59977413.330499898
2,1, 7,21, 0, 7,10.00,20.00,SummerDesignDay
8,18.87778619489805
10,60454455.141969557
891,60615897.78667483
2,1, 7,21, 0, 7,20.00,30.00,SummerDesignDay
8,18.915470425479847
10,63240136.04661797
891,121152339.03540796
2,1, 7,21, 0, 7,30.00,40.00,SummerDesignDay
8,18.953096118062495
10,66161605.57846161
891,60530974.36318881
2,1, 7,21, 0, 7,40.00,50.00,SummerDesignDay
8,18.99066883495391
10,69131048.83532308
891,60659905.78855333
2,1, 7,21, 0, 7,50.00,60.00,SummerDesignDay
8,19.02819215483863
10,71945830.96013531
891,121055513.27921003
2,1, 7,21, 0, 7, 0.00,60.00,SummerDesignDay
1125,23.892290640365528
1165,23.89516129510565
1205,23.85133739490688
1245,23.878969891657943
1285,23.85169641980454
1325,23.876344456656566
1365,23.883654460197677
1405,23.883360031227395
1445,23.878045186982516
1485,23.880238235179069
1525,23.896047709233966
1565,23.898292996325166
1605,23.866610667668139
1645,23.884522355766167
1685,23.866765835022848
1725,23.88324744152311
1765,23.888869008861446
1805,23.888392153920788
1845,23.883316204650027
1885,23.884934047987028
2,1, 7,21, 0, 8, 0.00,10.00,SummerDesignDay
8,19.119090922986229
10,96530678.57460034
891,121937506.54251322
2,1, 7,21, 0, 8,10.00,20.00,SummerDesignDay
8,19.209676482065853
10,103790724.29893026
891,95198775.19598589
2,1, 7,21, 0, 8,20.00,30.00,SummerDesignDay
8,19.299951906634847
10,107085707.51183562
891,115731344.54941023
2,1, 7,21, 0, 8,30.00,40.00,SummerDesignDay
8,19.389928824990219
10,110156921.46572869
891,133595674.15752575
2,1, 7,21, 0, 8,40.00,50.00,SummerDesignDay
8,19.4795823892733
10,113098139.04575892
891,133609429.78468639
2,1, 7,21, 0, 8,50.00,60.00,SummerDesignDay
8,19.568935475929295
10,116072241.82215247
891,133626887.6757201
2,1, 7,21, 0, 8, 0.00,60.00,SummerDesignDay
1125,23.89640289877693
1165,23.89900846218035
1205,23.852977758949579
1245,23.877019878047375
1285,23.85036980951939
1325,23.878591656244315
1365,23.88469089574578
1405,23.88399896740749
1445,23.879749698559185
1485,23.882105384196309
1525,23.899843042574564
1565,23.902051316159335
1605,23.868987104014719
1645,23.88556282449754
1685,23.868944281554609
1725,23.88713669416775
1765,23.890992443444217
1805,23.89033634409877
1845,23.886414776486676
1885,23.888159731788364
2,1, 7,21, 0, 9, 0.00,10.00,SummerDesignDay
8,19.66844507688812
10,127290022.39215024
891,155445985.43595983
2,1, 7,21, 0, 9,10.00,20.00,SummerDesignDay
8,19.767573179707669
10,135237523.8782245
891,216384265.4214851
2,1, 7,21, 0, 9,20.00,30.00,SummerDesignDay
8,19.866330746445795
10,137947349.31610898
891,179318142.59180189
2,1, 7,21, 0, 9,30.00,40.00,SummerDesignDay
8,19.964711871061558
10,140931806.87257708
891,158330941.71143184
2,1, 7,21, 0, 9,40.00,50.00,SummerDesignDay
8,20.062727728864816
10,143827878.08989004
891,233612625.7190783
2,1, 7,21, 0, 9,50.00,60.00,SummerDesignDay
8,20.160375627757714
10,146758581.47341875
891,162054657.04747308
2,1, 7,21, 0, 9, 0.00,60.00,SummerDesignDay
1125,23.898023672702864
1165,23.900453223971878
1205,23.85708662163347
1245,23.878985099119708
1285,23.85491511469392
1325,23.882078909128937
1365,23.886884493471908
1405,23.88621728697272
1445,23.88151949279212
1485,23.88384730801296
1525,23.901229813224508
1565,23.903358404527638
1605,23.871096779635093
1645,23.887858932744206
1685,23.870941716680539
1725,23.89028891735141
1765,23.893397931432714
1805,23.892775751180126
1845,23.8890043270443
1885,23.89073626254638
2,1, 7,21, 0,10, 0.00,10.00,SummerDesignDay
8,20.247432286023
10,137903287.9577601
891,142502988.32928107
2,1, 7,21, 0,10,10.00,20.00,SummerDesignDay
8,20.334198251055687
10,137052984.223474
891,140974492.26356597
2,1, 7,21, 0,10,20.00,30.00,SummerDesignDay
8,20.420674889330156
10,139566505.86889527
891,140989931.14584289
2,1, 7,21, 0,10,30.00,40.00,SummerDesignDay
8,20.50686410461129
10,141966282.77099199
891,141004566.2028286
2,1, 7,21, 0,10,40.00,50.00,SummerDesignDay
8,20.59277197915242
10,144259444.11809115
891,141019099.80325169
2,1, 7,21, 0,10,50.00,60.00,SummerDesignDay
8,20.67839100058158
10,146222776.90484465
891,155278406.29610176
2,1, 7,21, 0,10, 0.00,60.00,SummerDesignDay
1125,23.8981001714853
1165,23.90048368992696
1205,23.860533234472525
1245,23.880934611708047
1285,23.857112153649977
1325,23.886443585804064
1365,23.88950451757023
1405,23.888417532947967
1445,23.88299399836826
1485,23.885362752972143
1525,23.901294948394793
1565,23.903387359374635
1605,23.872921556244859
1645,23.89000158195505
1685,23.872640816264608
1725,23.892957044026244
1765,23.8957811081645
1805,23.895257654847894
1845,23.891061553889505
1885,23.89281991353202
2,1, 7,21, 0,11, 0.00,10.00,SummerDesignDay
8,20.75370382828009
10,145632800.36851
891,115209454.61458723
2,1, 7,21, 0,11,10.00,20.00,SummerDesignDay
8,20.82879725584293
10,144112095.9409102
891,127047205.8756081
2,1, 7,21, 0,11,20.00,30.00,SummerDesignDay
8,20.90366855164364
10,145692714.87550826
891,63617213.152420509
2,1, 7,21, 0,11,30.00,40.00,SummerDesignDay
8,20.978327197140595
10,147187705.1776059
891,126963620.59287825
2,1, 7,21, 0,11,40.00,50.00,SummerDesignDay
8,21.052770435649987
10,148795345.37278275
891,127104331.05477995
2,1, 7,21, 0,11,50.00,60.00,SummerDesignDay
8,21.126998315025806
10,150419114.95934136
891,63561760.55387983
2,1, 7,21, 0,11, 0.00,60.00,SummerDesignDay
1125,23.895926566395194
1165,23.89834040256129
1205,23.863119236036949
1245,23.882495474184795
1285,23.858832359283754
1325,23.889404863552398
1365,23.892698167248424
1405,23.892129146840579
1445,23.88420507317292
1485,23.886626965837256
1525,23.899518358085456
1565,23.901574143730256
1605,23.874468330002136
1645,23.891569391479476
1685,23.87378653314558
1725,23.896198251291854
1765,23.89844281306037
1805,23.898044017242826
1845,23.892531878228863
1885,23.894343307365479
2,1, 7,21, 0,12, 0.00,10.00,SummerDesignDay
8,21.176364764512436
10,140212030.00607798
891,126992939.99435918
2,1, 7,21, 0,12,10.00,20.00,SummerDesignDay
8,21.225636252128049
10,141392919.09150679
891,106857592.18613552
2,1, 7,21, 0,12,20.00,30.00,SummerDesignDay
8,21.27481408813442
10,142717657.02339424
891,83786912.77317678
2,1, 7,21, 0,12,30.00,40.00,SummerDesignDay
8,21.32389714161367
10,144132816.13023777
891,127025449.25994134
2,1, 7,21, 0,12,40.00,50.00,SummerDesignDay
8,21.372882039030619
10,145365653.7736925
891,72590023.122989
2,1, 7,21, 0,12,50.00,60.00,SummerDesignDay
8,21.421778222706306
10,146479875.27096588
891,117998787.64091406
2,1, 7,21, 0,12, 0.00,60.00,SummerDesignDay
1125,23.893075611575246
1165,23.895482499712349
1205,23.864666869822078
1245,23.88356931422319
1285,23.859664974718084
1325,23.892907968101935
1365,23.89566322272327
1405,23.895238437431943
1445,23.88505653024669
1485,23.8875702876913
1525,23.897328229896073
1565,23.89931652677986
1605,23.875666606466756
1645,23.892704914746579
1685,23.87450585977726
1725,23.898856658715134
1765,23.90066719373192
1805,23.900432750877824
1845,23.89358974598448
1885,23.89547389957677
2,1, 7,21, 0,13, 0.00,10.00,SummerDesignDay
8,21.460829759656176
10,136022369.41006489
891,75434278.30404774
2,1, 7,21, 0,13,10.00,20.00,SummerDesignDay
8,21.499817003159384
10,135167992.19612924
891,106588742.65340123
2,1, 7,21, 0,13,20.00,30.00,SummerDesignDay
8,21.53875017563149
10,135911491.7765141
891,60585629.72905615
2,1, 7,21, 0,13,30.00,40.00,SummerDesignDay
8,21.57761871831439
10,136466251.11908714
891,114357250.09527807
2,1, 7,21, 0,13,40.00,50.00,SummerDesignDay
8,21.616433450967234
10,136965110.69725878
891,67357605.59698425
2,1, 7,21, 0,13,50.00,60.00,SummerDesignDay
8,21.655184624488759
10,137567939.75969623
891,60625938.13387055
2,1, 7,21, 0,13, 0.00,60.00,SummerDesignDay
1125,23.891527123123085
1165,23.893950816589905
1205,23.865724426300664
1245,23.884349797127955
1285,23.860317538219719
1325,23.894680168372628
1365,23.897140175243107
1405,23.89690420031948
1445,23.885836017950543
1485,23.888398115690977
1525,23.896344508779366
1565,23.898314967140285
1605,23.876234356035213
1645,23.893269644969249
1685,23.874846400414158
1725,23.900047053665778
1765,23.901685082208134
1805,23.90156969277858
1845,23.894146114275505
1885,23.89607967310973
2,1, 7,21, 0,14, 0.00,10.00,SummerDesignDay
8,21.67937576104208
10,137930558.8100733
891,126392971.01101016
2,1, 7,21, 0,14,10.00,20.00,SummerDesignDay
8,21.703544513972305
10,140015140.10954926
891,102878643.11864291
2,1, 7,21, 0,14,20.00,30.00,SummerDesignDay
8,21.727690125397957
10,140757210.9750475
891,87757911.28961669
2,1, 7,21, 0,14,30.00,40.00,SummerDesignDay
8,21.751812391480358
10,141778042.08956949
891,127030323.46802248
2,1, 7,21, 0,14,40.00,50.00,SummerDesignDay
8,21.7759121945202
10,142779767.78606207
891,68492971.05141331
2,1, 7,21, 0,14,50.00,60.00,SummerDesignDay
8,21.799989308895414
10,143788352.64509378
891,122093458.6746356
2,1, 7,21, 0,14, 0.00,60.00,SummerDesignDay
1125,23.891020016434813
1165,23.893468079119065
1205,23.865871242790733
1245,23.88486648402225
1285,23.860962940948246
1325,23.894820162875534
1365,23.897305220588039
1405,23.897211064261389
1445,23.888398728777305
1485,23.8909370998653
1525,23.896007698299884
1565,23.89798654797468
1605,23.876189294927486
1645,23.893436988654345
1685,23.87483565380346
1725,23.899876958372589
1765,23.901596872097469
1805,23.901553603244328
1845,23.89545647067572
1885,23.897433761862329
2,1, 7,21, 0,15, 0.00,10.00,SummerDesignDay
8,21.799989308895414
10,144383792.38585095
891,70431221.05325309
2,1, 7,21, 0,15,10.00,20.00,SummerDesignDay
8,21.799989308895414
10,143236969.51626406
891,111570805.61183985
2,1, 7,21, 0,15,20.00,30.00,SummerDesignDay
8,21.799989308895414
10,143430651.5308229
891,60581576.57568447
2,1, 7,21, 0,15,30.00,40.00,SummerDesignDay
8,21.799989308895414
10,143319501.87012805
891,109630709.84709259
2,1, 7,21, 0,15,40.00,50.00,SummerDesignDay
8,21.799989308895414
10,143082432.7718742
891,72080713.24341555
2,1, 7,21, 0,15,50.00,60.00,SummerDesignDay
8,21.799989308895414
10,142822401.04898248
891,60620282.975343938
2,1, 7,21, 0,15, 0.00,60.00,SummerDesignDay
1125,23.890547160832158
1165,23.89299457711914
1205,23.865729522662023
1245,23.88514379583657
1285,23.861763510622735
1325,23.893687782570763
1365,23.89644580623244
1405,23.896480643600197
1445,23.89378447246563
1485,23.896236354768634
1525,23.89552296475338
1565,23.897497256842969
1605,23.87566540272377
1645,23.893195367828939
1685,23.874584884275924
1725,23.898625893982758
1765,23.90057254044082
1805,23.900622676789014
1845,23.898979085203864
1885,23.901031497358987
2,1, 7,21, 0,16, 0.00,10.00,SummerDesignDay
8,21.771094855856704
10,141913129.20836083
891,58217365.020063709
2,1, 7,21, 0,16,10.00,20.00,SummerDesignDay
8,21.742168014681356
10,139244233.56844536
891,74581218.38417366
2,1, 7,21, 0,16,20.00,30.00,SummerDesignDay
8,21.71320780280698
10,137962906.03384689
891,93042157.43040158
2,1, 7,21, 0,16,30.00,40.00,SummerDesignDay
8,21.68421463192507
10,136468208.2397534
891,63823861.2031159
2,1, 7,21, 0,16,40.00,50.00,SummerDesignDay
8,21.655184624488759
10,134868366.3501947
891,57838840.2092586
2,1, 7,21, 0,16,50.00,60.00,SummerDesignDay
8,21.6261256071541
10,133174556.1657567
891,57849260.93440712
2,1, 7,21, 0,16, 0.00,60.00,SummerDesignDay
1125,23.890118122624288
1165,23.892551901107625
1205,23.865449972571786
1245,23.885269299795227
1285,23.86247380442533
1325,23.89245111606967
1365,23.895488523087818
1405,23.895692783751249
1445,23.898016085765265
1485,23.900481978371166
1525,23.89492354801
1565,23.896884863902917
1605,23.8750233079749
1645,23.89276120453144
1685,23.87422408702172
1725,23.897283065080815
1765,23.89942119360666
1805,23.899623558388929
1845,23.90209826946973
1885,23.90422238697867
2,1, 7,21, 0,17, 0.00,10.00,SummerDesignDay
8,21.587330220761357
10,132310109.7165739
891,57860183.28622376
2,1, 7,21, 0,17,10.00,20.00,SummerDesignDay
8,21.548471336507889
10,130106170.75181327
891,57871185.578150738
2,1, 7,21, 0,17,20.00,30.00,SummerDesignDay
8,21.509558190151649
10,127912772.69925443
891,57882268.33406825
2,1, 7,21, 0,17,30.00,40.00,SummerDesignDay
8,21.470581299934044
10,125700133.7222995
891,57893431.498122099
2,1, 7,21, 0,17,40.00,50.00,SummerDesignDay
8,21.431549204917386
10,123584667.64953141
891,57904674.754234727
2,1, 7,21, 0,17,50.00,60.00,SummerDesignDay
8,21.392452600030727
10,121492029.3807318
891,57915997.79137019
2,1, 7,21, 0,17, 0.00,60.00,SummerDesignDay
1125,23.88944027042952
1165,23.89184112746437
1205,23.865023773101496
1245,23.884963128935483
1285,23.86276825886885
1325,23.89093234298627
1365,23.89432443208481
1405,23.894647854000806
1445,23.900292573615457
1485,23.902718578517818
1525,23.893807232774127
1565,23.895754748394017
1605,23.873851465198098
1645,23.891716721345376
1685,23.873284344591537
1725,23.89558295553614
1765,23.897911834549676
1805,23.898265408967096
1845,23.903398938501899
1885,23.905544147257279
2,1, 7,21, 0,18, 0.00,10.00,SummerDesignDay
8,21.343500800253975
10,121317379.48037425
891,57927400.29793097
2,1, 7,21, 0,18,10.00,20.00,SummerDesignDay
8,21.29445517999728
10,119001169.57001165
891,57938881.95803188
2,1, 7,21, 0,18,20.00,30.00,SummerDesignDay
8,21.24531961332415
10,116592119.64691037
891,57950442.44752758
2,1, 7,21, 0,18,30.00,40.00,SummerDesignDay
8,21.196085706061159
10,114084577.15854623
891,80351127.16777411
2,1, 7,21, 0,18,40.00,50.00,SummerDesignDay
8,21.146756926413827
10,111498755.16075212
891,92646568.23038142
2,1, 7,21, 0,18,50.00,60.00,SummerDesignDay
8,21.097333755216899
10,108828304.20097792
891,58427679.27683635
2,1, 7,21, 0,18, 0.00,60.00,SummerDesignDay
1125,23.88837579726783
1165,23.890731341312529
1205,23.864560917746315
1245,23.884626658289294
1285,23.86275987605077
1325,23.889594317587087
1365,23.893269976891138
1405,23.893688957270006
1445,23.900756525489169
1485,23.90321122140509
1525,23.892078865476849
1565,23.894007352243734
1605,23.87232681028168
1645,23.89027953113256
1685,23.871930438245668
1725,23.893610531442098
1765,23.896135820255485
1805,23.896625296070117
1845,23.90309878290285
1885,23.90527463063651
2,1, 7,21, 0,19, 0.00,10.00,SummerDesignDay
8,21.023019732832933
10,105665890.26811448
891,57840353.99257815
2,1, 7,21, 0,19,10.00,20.00,SummerDesignDay
8,20.948490549703029
10,102408650.29966186
891,57851002.59556177
2,1, 7,21, 0,19,20.00,30.00,SummerDesignDay
8,20.873745184382885
10,99090029.80168882
891,57861942.827126469
2,1, 7,21, 0,19,30.00,40.00,SummerDesignDay
8,20.798782612519024
10,95469709.50421834
891,57872957.90163288
2,1, 7,21, 0,19,40.00,50.00,SummerDesignDay
8,20.723605634987398
10,91813104.3982996
891,57884053.57543434
2,1, 7,21, 0,19,50.00,60.00,SummerDesignDay
8,20.648205443782066
10,87963610.24462866
891,57895229.60787946
2,1, 7,21, 0,19, 0.00,60.00,SummerDesignDay
1125,23.886961893847496
1165,23.88927882641364
1205,23.8639644698137
1245,23.885030125861169
1285,23.862664060550875
1325,23.888146952003614
1365,23.892733300553699
1405,23.89319975199999
1445,23.899157913073564
1485,23.901877284408874
1525,23.889812427984454
1565,23.891748478077476
1605,23.870361734133004
1645,23.88921661816316
1685,23.870115478806807
1725,23.891328796772837
1765,23.894747399008286
1805,23.89531067349712
1845,23.900994780013887
1885,23.90327614326039
2,1, 7,21, 0,20, 0.00,10.00,SummerDesignDay
8,20.59277197915242
10,129697776.91318175
891,125897907.37753779
2,1, 7,21, 0,20,10.00,20.00,SummerDesignDay
8,20.537219972964399
10,128966597.07400425
891,63563832.39897677
2,1, 7,21, 0,20,20.00,30.00,SummerDesignDay
8,20.48154799091199
10,124939177.92907974
891,126992446.39827107
2,1, 7,21, 0,20,30.00,40.00,SummerDesignDay
8,20.425752225515759
10,120532083.57435143
891,107450623.30663046
2,1, 7,21, 0,20,40.00,50.00,SummerDesignDay
8,20.369840248455387
10,118113147.89844758
891,83194942.76817486
2,1, 7,21, 0,20,50.00,60.00,SummerDesignDay
8,20.313807280186916
10,116458784.00682085
891,127024743.98630154
2,1, 7,21, 0,20, 0.00,60.00,SummerDesignDay
1125,23.885099840618083
1165,23.88732959074116
1205,23.863245345353666
1245,23.883518776650438
1285,23.86205430465107
1325,23.886090300450304
1365,23.89081309923149
1405,23.891269942907156
1445,23.893603195739698
1485,23.896488357533355
1525,23.887091638033536
1565,23.88899019991548
1605,23.868571046488815
1645,23.886969848540628
1685,23.868307403149655
1725,23.88843754377884
1765,23.892164497858216
1805,23.892719478742348
1845,23.894731886883876
1885,23.89715575190411
2,1, 7,21, 0,21, 0.00,10.00,SummerDesignDay
8,20.267875513679358
10,140187674.22900845
891,139384684.61095537
2,1, 7,21, 0,21,10.00,20.00,SummerDesignDay
8,20.221856772507928
10,142616110.2615912
891,140908208.61865468
2,1, 7,21, 0,21,20.00,30.00,SummerDesignDay
8,20.17575730066602
10,141741254.80673579