Program Version,EnergyPlus, Version 9.1.0-fafb9d5652, YMD=2019.11.04 14:43
1,5,Environment Title[],Latitude[deg],Longitude[deg],Time Zone[],Elevation[m]
2,8,Day of Simulation[],Month[],Day of Month[],DST Indicator[1=yes 0=no],Hour[],StartMinute[],EndMinute[],DayType
3,5,Cumulative Day of Simulation[],Month[],Day of Month[],DST Indicator[1=yes 0=no],DayType  ! When Daily Report Variables Requested
4,2,Cumulative Days of Simulation[],Month[]  ! When Monthly Report Variables Requested
5,1,Cumulative Days of Simulation[] ! When Run Period Report Variables Requested
6,1,Calendar Year of Simulation[] ! When Annual Report Variables Requested
7,9,Environment,Site Outdoor Air Drybulb Temperature [C] !Monthly [Value,Min,Day,Hour,Minute,Max,Day,Hour,Minute]
8,1,Environment,Site Outdoor Air Wetbulb Temperature [C] !TimeStep
927,1,STORY 1 EAST LOWER PERIMETER SPACE ZN,Zone Air Temperature [C] !Hourly
928,7,STORY 1 EAST LOWER PERIMETER SPACE ZN,Zone Air Relative Humidity [%] !Daily [Value,Min,Hour,Minute,Max,Hour,Minute]
967,1,STORY 1 EAST UPPER PERIMETER SPACE ZN,Zone Air Temperature [C] !Hourly
968,7,STORY 1 EAST UPPER PERIMETER SPACE ZN,Zone Air Relative Humidity [%] !Daily [Value,Min,Hour,Minute,Max,Hour,Minute]
1007,1,STORY 1 NORTH CORE SPACE ZN,Zone Air Temperature [C] !Hourly
1008,7,STORY 1 NORTH CORE SPACE ZN,Zone Air Relative Humidity [%] !Daily [Value,Min,Hour,Minute,Max,Hour,Minute]
1047,1,STORY 1 NORTH PERIMETER SPACE ZN,Zone Air Temperature [C] !Hourly
1048,7,STORY 1 NORTH PERIMETER SPACE ZN,Zone Air Relative Humidity [%] !Daily [Value,Min,Hour,Minute,Max,Hour,Minute]
1087,1,STORY 1 SOUTH CORE SPACE ZN,Zone Air Temperature [C] !Hourly
1088,7,STORY 1 SOUTH CORE SPACE ZN,Zone Air Relative Humidity [%] !Daily [Value,Min,Hour,Minute,Max,Hour,Minute]
1127,1,STORY 1 SOUTH LOWER PERIMETER SPACE ZN,Zone Air Temperature [C] !Hourly
1128,7,STORY 1 SOUTH LOWER PERIMETER SPACE ZN,Zone Air Relative Humidity [%] !Daily [Value,Min,Hour,Minute,Max,Hour,Minute]
1167,1,STORY 1 SOUTH UPPER LEFT PERIMETER SPACE 1 ZN,Zone Air Temperature [C] !Hourly
1168,7,STORY 1 SOUTH UPPER LEFT PERIMETER SPACE 1 ZN,Zone Air Relative Humidity [%] !Daily [Value,Min,Hour,Minute,Max,Hour,Minute]
1207,1,STORY 1 SOUTH UPPER LEFT PERIMETER SPACE ZN,Zone Air Temperature [C] !Hourly
1208,7,STORY 1 SOUTH UPPER LEFT PERIMETER SPACE ZN,Zone Air Relative Humidity [%] !Daily [Value,Min,Hour,Minute,Max,Hour,Minute]
1247,1,STORY 1 WEST LOWER PERIMETER SPACE ZN,Zone Air Temperature [C] !Hourly
1248,7,STORY 1 WEST LOWER PERIMETER SPACE ZN,Zone Air Relative Humidity [%] !Daily [Value,Min,Hour,Minute,Max,Hour,Minute]
1287,1,STORY 1 WEST UPPER PERIMETER SPACE ZN,Zone Air Temperature [C] !Hourly
1288,7,STORY 1 WEST UPPER PERIMETER SPACE ZN,Zone Air Relative Humidity [%] !Daily [Value,Min,Hour,Minute,Max,Hour,Minute]
1327,1,STORY 2 EAST LOWER PERIMETER SPACE ZN,Zone Air Temperature [C] !Hourly
1328,7,STORY 2 EAST LOWER PERIMETER SPACE ZN,Zone Air Relative Humidity [%] !Daily [Value,Min,Hour,Minute,Max,Hour,Minute]
1367,1,STORY 2 EAST UPPER PERIMETER SPACE ZN,Zone Air Temperature [C] !Hourly
1368,7,STORY 2 EAST UPPER PERIMETER SPACE ZN,Zone Air Relative Humidity [%] !Daily [Value,Min,Hour,Minute,Max,Hour,Minute]
1407,1,STORY 2 NORTH CORE SPACE ZN,Zone Air Temperature [C] !Hourly
1408,7,STORY 2 NORTH CORE SPACE ZN,Zone Air Relative Humidity [%] !Daily [Value,Min,Hour,Minute,Max,Hour,Minute]
1447,1,STORY 2 NORTH PERIMETER SPACE ZN,Zone Air Temperature [C] !Hourly
1448,7,STORY 2 NORTH PERIMETER SPACE ZN,Zone Air Relative Humidity [%] !Daily [Value,Min,Hour,Minute,Max,Hour,Minute]
1487,1,STORY 2 SOUTH CORE SPACE ZN,Zone Air Temperature [C] !Hourly
1488,7,STORY 2 SOUTH CORE SPACE ZN,Zone Air Relative Humidity [%] !Daily [Value,Min,Hour,Minute,Max,Hour,Minute]
1527,1,STORY 2 SOUTH LOWER PERIMETER SPACE ZN,Zone Air Temperature [C] !Hourly
1528,7,STORY 2 SOUTH LOWER PERIMETER SPACE ZN,Zone Air Relative Humidity [%] !Daily [Value,Min,Hour,Minute,Max,Hour,Minute]
1567,1,STORY 2 SOUTH UPPER LEFT PERIMETER SPACE 1 ZN,Zone Air Temperature [C] !Hourly
1568,7,STORY 2 SOUTH UPPER LEFT PERIMETER SPACE 1 ZN,Zone Air Relative Humidity [%] !Daily [Value,Min,Hour,Minute,Max,Hour,Minute]
1607,1,STORY 2 SOUTH UPPER LEFT PERIMETER SPACE ZN,Zone Air Temperature [C] !Hourly
1608,7,STORY 2 SOUTH UPPER LEFT PERIMETER SPACE ZN,Zone Air Relative Humidity [%] !Daily [Value,Min,Hour,Minute,Max,Hour,Minute]
1647,1,STORY 2 WEST LOWER PERIMETER SPACE ZN,Zone Air Temperature [C] !Hourly
1648,7,STORY 2 WEST LOWER PERIMETER SPACE ZN,Zone Air Relative Humidity [%] !Daily [Value,Min,Hour,Minute,Max,Hour,Minute]
1687,1,STORY 2 WEST UPPER PERIMETER SPACE ZN,Zone Air Temperature [C] !Hourly
1688,7,STORY 2 WEST UPPER PERIMETER SPACE ZN,Zone Air Relative Humidity [%] !Daily [Value,Min,Hour,Minute,Max,Hour,Minute]
10,1,Electricity:Facility [J] !TimeStep
1838,1,DistrictCooling:Facility [J] !TimeStep
1801,1,DistrictHeating:Facility [J] !TimeStep
End of Data Dictionary
1,OTTAWA=MACDONALD-CARTIER INTL ANN CLG .4% CONDNS DB=>MWB,  45.32, -75.67,  -5.00, 114.90
2,1, 7,21, 0, 1, 0.00,10.00,SummerDesignDay
8,19.2840458690032
10,26714109.879892429
1801,0.0
1838,63185697.684535179
2,1, 7,21, 0, 1,10.00,20.00,SummerDesignDay
8,19.25220058801155
10,26714109.879892429
1801,0.0
1838,59202465.67884763
2,1, 7,21, 0, 1,20.00,30.00,SummerDesignDay
8,19.2203165671003
10,26714109.879892429
1801,0.0
1838,56495516.028698068
2,1, 7,21, 0, 1,30.00,40.00,SummerDesignDay
8,19.188388626363016
10,26714109.879892429
1801,0.0
1838,53756504.57271754
2,1, 7,21, 0, 1,40.00,50.00,SummerDesignDay
8,19.15642770709394
10,26714109.879892429
1801,0.0
1838,51096980.31480751
2,1, 7,21, 0, 1,50.00,60.00,SummerDesignDay
8,19.124427397166604
10,26714109.879892429
1801,0.0
1838,48526045.902282249
2,1, 7,21, 0, 1, 0.00,60.00,SummerDesignDay
927,24.000000000000019
967,24.0
1007,24.000000000000005
1047,24.000000000000005
1087,24.0
1127,24.000000000000005
1167,24.000000000000005
1207,24.0
1247,24.0
1287,24.00000000000003
1327,24.000000000000015
1367,24.000000000000015
1407,24.00000000000001
1447,24.000000000000005
1487,24.00000000000001
1527,24.000000000000005
1567,24.00000000000001
1607,24.000000000000005
1647,24.00000000000001
1687,24.00000000000001
2,1, 7,21, 0, 2, 0.00,10.00,SummerDesignDay
8,19.103070457286994
10,17809406.586594955
1801,0.0
1838,40191972.70215709
2,1, 7,21, 0, 2,10.00,20.00,SummerDesignDay
8,19.08170119193842
10,17809406.586594955
1801,0.0
1838,37518038.46721262
2,1, 7,21, 0, 2,20.00,30.00,SummerDesignDay
8,19.06030939273045
10,17809406.586594955
1801,0.0
1838,35334616.97341923
2,1, 7,21, 0, 2,30.00,40.00,SummerDesignDay
8,19.03890076386851
10,17809406.586594955
1801,0.0
1838,33268250.83982562
2,1, 7,21, 0, 2,40.00,50.00,SummerDesignDay
8,19.01747444558601
10,17809406.586594955
1801,0.0
1838,31274343.662768667
2,1, 7,21, 0, 2,50.00,60.00,SummerDesignDay
8,18.996036037989819
10,17809406.586594955
1801,0.0
1838,29329879.529064545
2,1, 7,21, 0, 2, 0.00,60.00,SummerDesignDay
927,24.000000000000015
967,24.000000000000026
1007,23.999999999999998
1047,24.0
1087,24.000000000000005
1127,23.999999999999998
1167,24.00000000000001
1207,24.000000000000005
1247,24.0
1287,24.00000000000001
1327,24.0
1367,24.0
1407,24.0
1447,23.99999999999999
1487,24.0
1527,24.00000000000001
1567,24.0
1607,24.000000000000005
1647,24.00000000000001
1687,24.000000000000015
2,1, 7,21, 0, 3, 0.00,10.00,SummerDesignDay
8,18.97994058577143
10,17809406.586594955
1801,0.0
1838,27682631.248611198
2,1, 7,21, 0, 3,10.00,20.00,SummerDesignDay
8,18.96383509390068
10,17809406.586594955
1801,0.0
1838,26058358.80622969
2,1, 7,21, 0, 3,20.00,30.00,SummerDesignDay
8,18.947724870466826
10,17809406.586594955
1801,0.0
1838,24440294.952699923
2,1, 7,21, 0, 3,30.00,40.00,SummerDesignDay
8,18.931599991201066
10,17809406.586594955
1801,0.0
1838,22842447.003455968
2,1, 7,21, 0, 3,40.00,50.00,SummerDesignDay
8,18.915470425479847
10,17809406.586594955
1801,0.0
1838,21253695.66386802
2,1, 7,21, 0, 3,50.00,60.00,SummerDesignDay
8,18.8993255989201
10,17809406.586594955
1801,0.0
1838,19689623.70419407
2,1, 7,21, 0, 3, 0.00,60.00,SummerDesignDay
927,24.0
967,24.000000000000005
1007,24.000000000000005
1047,24.0
1087,23.999999999999998
1127,24.0
1167,24.000000000000005
1207,24.00000000000001
1247,24.000000000000005
1287,24.000000000000015
1327,24.00000000000001
1367,24.000000000000005
1407,24.000000000000005
1447,24.00000000000001
1487,24.000000000000005
1527,24.0
1567,23.999999999999998
1607,24.000000000000005
1647,24.000000000000005
1687,23.999999999999998
2,1, 7,21, 0, 4, 0.00,10.00,SummerDesignDay
8,18.883176400800605
10,8904703.293297477
1801,0.0
1838,12323564.70742718
2,1, 7,21, 0, 4,10.00,20.00,SummerDesignDay
8,18.867011710849643
10,8904703.293297477
1801,0.0
1838,10904157.557195299
2,1, 7,21, 0, 4,20.00,30.00,SummerDesignDay
8,18.850837592647797
10,8904703.293297477
1801,0.0
1838,9915504.214905952
2,1, 7,21, 0, 4,30.00,40.00,SummerDesignDay
8,18.834658360362007
10,8904703.293297477
1801,0.0
1838,8970627.996463867
2,1, 7,21, 0, 4,40.00,50.00,SummerDesignDay
8,18.8184648850153
10,8904703.293297477
1801,0.0
1838,8057987.409635984
2,1, 7,21, 0, 4,50.00,60.00,SummerDesignDay
8,18.8022655410338
10,8904703.293297477
1801,0.0
1838,7187003.394334748
2,1, 7,21, 0, 4, 0.00,60.00,SummerDesignDay
927,24.0
967,24.00000000000001
1007,24.000000000000005
1047,24.00000000000001
1087,24.0
1127,24.00000000000001
1167,24.0
1207,24.00000000000001
1247,24.0
1287,24.000000000000005
1327,24.0
1367,23.999999999999998
1407,23.970913715487908
1447,23.918303064843035
1487,23.966637199387305
1527,23.99637404585698
1567,23.915002176881108
1607,23.937434042597066
1647,24.0
1687,24.00000000000001
2,1, 7,21, 0, 5, 0.00,10.00,SummerDesignDay
8,18.79145567867417
10,8904703.293297477
1801,0.0
1838,6466502.164073583
2,1, 7,21, 0, 5,10.00,20.00,SummerDesignDay
8,18.780646332866213
10,8904703.293297477
1801,0.0
1838,5793775.825411232
2,1, 7,21, 0, 5,20.00,30.00,SummerDesignDay
8,18.76983296444122
10,8904703.293297477
1801,0.0
1838,5163670.233128809
2,1, 7,21, 0, 5,30.00,40.00,SummerDesignDay
8,18.75901007085189
10,8904703.293297477
1801,0.0
1838,4988998.925601069
2,1, 7,21, 0, 5,40.00,50.00,SummerDesignDay
8,18.7481869937485
10,8904703.293297477
1801,0.0
1838,7210609.735836284
2,1, 7,21, 0, 5,50.00,60.00,SummerDesignDay
8,18.737365749092537
10,8904703.293297477
1801,0.0
1838,12645937.78152673
2,1, 7,21, 0, 5, 0.00,60.00,SummerDesignDay
927,24.000000000000005
967,24.0
1007,24.0
1047,23.998737017382369
1087,24.0
1127,24.0
1167,24.00000000000001
1207,24.0
1247,24.00000000000001
1287,24.000000000000005
1327,23.984113685635579
1367,23.989488444457768
1407,23.85503828006893
1447,23.814364403695849
1487,23.85365424571344
1527,23.920784007423618
1567,23.78237786634381
1607,23.81439908263204
1647,23.999999999999998
1687,23.99999999999999
2,1, 7,21, 0, 6, 0.00,10.00,SummerDesignDay
8,18.7481869937485
10,8904703.293297477
1801,0.0
1838,23797306.2201984
2,1, 7,21, 0, 6,10.00,20.00,SummerDesignDay
8,18.75901007085189
10,8904703.293297477
1801,0.0
1838,31978433.113315744
2,1, 7,21, 0, 6,20.00,30.00,SummerDesignDay
8,18.76983296444122
10,8904703.293297477
1801,0.0
1838,38883068.121626999
2,1, 7,21, 0, 6,30.00,40.00,SummerDesignDay
8,18.780646332866213
10,8904703.293297477
1801,0.0
1838,44677319.16487408
2,1, 7,21, 0, 6,40.00,50.00,SummerDesignDay
8,18.79145567867417
10,8904703.293297477
1801,0.0
1838,53858327.61449734
2,1, 7,21, 0, 6,50.00,60.00,SummerDesignDay
8,18.8022655410338
10,8904703.293297477
1801,0.0
1838,59887463.57178385
2,1, 7,21, 0, 6, 0.00,60.00,SummerDesignDay
927,24.000000000000026
967,24.000000000000026
1007,24.000000000000005
1047,23.99999998493095
1087,24.000000000000005
1127,24.000000000000005
1167,24.000000000000019
1207,24.00000000000001
1247,24.000000000000005
1287,24.000000000000015
1327,23.999999683234348
1367,23.99999986648528
1407,23.934890216090385
1447,23.999798757374234
1487,23.951613141843766
1527,23.99203799958897
1567,23.99974497653687
1607,23.999901171359629
1647,24.0
1687,24.00000000000001
2,1, 7,21, 0, 7, 0.00,10.00,SummerDesignDay
8,18.840052605786814
10,17809406.586594955
1801,0.0
1838,74114086.0267108
2,1, 7,21, 0, 7,10.00,20.00,SummerDesignDay
8,18.87778619489805
10,17809406.586594955
1801,0.0
1838,83672649.29367934
2,1, 7,21, 0, 7,20.00,30.00,SummerDesignDay
8,18.915470425479847
10,17809406.586594955
1801,0.0
1838,93814870.22796233
2,1, 7,21, 0, 7,30.00,40.00,SummerDesignDay
8,18.953096118062495
10,17809406.586594955
1801,0.0
1838,102485879.517072
2,1, 7,21, 0, 7,40.00,50.00,SummerDesignDay
8,18.99066883495391
10,17809406.586594955
1801,0.0
1838,109661829.22762943
2,1, 7,21, 0, 7,50.00,60.00,SummerDesignDay
8,19.02819215483863
10,17809406.586594955
1801,0.0
1838,116429163.1926641
2,1, 7,21, 0, 7, 0.00,60.00,SummerDesignDay
927,24.00000000000003
967,24.000000000000097
1007,24.0
1047,24.0
1087,24.00000000000001
1127,24.000000000000005
1167,23.99999999999999
1207,24.00000000000001
1247,23.999999999999998
1287,24.000000000000005
1327,23.999999999998808
1367,23.999999999998935
1407,23.999999824380209
1447,23.999999999999763
1487,23.999999988915975
1527,23.999999999994399
1567,23.999999999998633
1607,23.999999999999586
1647,24.000000000000015
1687,24.000000000000015
2,1, 7,21, 0, 8, 0.00,10.00,SummerDesignDay
8,19.119090922986229
10,35618813.17318991
1801,0.0
1838,133758213.89198204
2,1, 7,21, 0, 8,10.00,20.00,SummerDesignDay
8,19.209676482065853
10,35618813.17318991
1801,0.0
1838,143233226.38638313
2,1, 7,21, 0, 8,20.00,30.00,SummerDesignDay
8,19.299951906634847
10,35618813.17318991
1801,0.0
1838,151657476.60726456
2,1, 7,21, 0, 8,30.00,40.00,SummerDesignDay
8,19.389928824990219
10,35618813.17318991
1801,0.0
1838,159848809.2207104
2,1, 7,21, 0, 8,40.00,50.00,SummerDesignDay
8,19.4795823892733
10,35618813.17318991
1801,0.0
1838,167987666.71954168
2,1, 7,21, 0, 8,50.00,60.00,SummerDesignDay
8,19.568935475929295
10,35618813.17318991
1801,0.0
1838,175941841.24231664
2,1, 7,21, 0, 8, 0.00,60.00,SummerDesignDay
927,24.000000000000069
967,24.0
1007,24.000000000000005
1047,24.00000000000003
1087,23.999999999999998
1127,24.000000000000019
1167,24.000000000000019
1207,24.00000000000001
1247,24.00000000000001
1287,24.000000000000005
1327,24.00000000000003
1367,24.000000000000097
1407,23.999999999999998
1447,24.00000000000003
1487,24.0
1527,24.00000000000001
1567,24.00000000000003
1607,24.000000000000026
1647,24.000000000000015
1687,24.000000000000019
2,1, 7,21, 0, 9, 0.00,10.00,SummerDesignDay
8,19.66844507688812
10,44523516.466487389
1801,0.0
1838,182580911.48476625
2,1, 7,21, 0, 9,10.00,20.00,SummerDesignDay
8,19.767573179707669
10,44523516.466487389
1801,0.0
1838,190605938.94366155
2,1, 7,21, 0, 9,20.00,30.00,SummerDesignDay
8,19.866330746445795
10,44523516.466487389
1801,0.0
1838,197891498.6824534
2,1, 7,21, 0, 9,30.00,40.00,SummerDesignDay
8,19.964711871061558
10,44523516.466487389
1801,0.0
1838,205052398.72970859
2,1, 7,21, 0, 9,40.00,50.00,SummerDesignDay
8,20.062727728864816
10,44523516.466487389
1801,0.0
1838,211960038.242452
2,1, 7,21, 0, 9,50.00,60.00,SummerDesignDay
8,20.160375627757714
10,44523516.466487389
1801,0.0
1838,218609205.04925806
2,1, 7,21, 0, 9, 0.00,60.00,SummerDesignDay
927,24.000000000000044
967,24.000000000000055
1007,23.999999999999998
1047,24.000000000000015
1087,24.00000000000001
1127,24.000000000000015
1167,24.00000000000001
1207,24.000000000000026
1247,24.00000000000001
1287,24.000000000000026
1327,24.000000000000069
1367,24.00000000000004
1407,24.000000000000026
1447,24.0
1487,24.00000000000001
1527,24.00000000000003
1567,23.999999999999998
1607,24.000000000000055
1647,24.00000000000003
1687,24.00000000000004
2,1, 7,21, 0,10, 0.00,10.00,SummerDesignDay
8,20.247432286023
10,35618813.17318991
1801,0.0
1838,218709690.26863838
2,1, 7,21, 0,10,10.00,20.00,SummerDesignDay
8,20.334198251055687
10,35618813.17318991
1801,0.0
1838,223781846.7946407
2,1, 7,21, 0,10,20.00,30.00,SummerDesignDay
8,20.420674889330156
10,35618813.17318991
1801,0.0
1838,228869608.64572866
2,1, 7,21, 0,10,30.00,40.00,SummerDesignDay
8,20.50686410461129
10,35618813.17318991
1801,0.0
1838,233500667.89949686
2,1, 7,21, 0,10,40.00,50.00,SummerDesignDay
8,20.59277197915242
10,35618813.17318991
1801,0.0
1838,238480764.6121726
2,1, 7,21, 0,10,50.00,60.00,SummerDesignDay
8,20.67839100058158
10,35618813.17318991
1801,0.0
1838,243579185.97121255
2,1, 7,21, 0,10, 0.00,60.00,SummerDesignDay
927,24.00000000000013
967,24.000000000000069
1007,24.00000000000001
1047,24.00000000000001
1087,24.000000000000005
1127,24.00000000000004
1167,24.000000000000015
1207,24.00000000000003
1247,24.000000000000005
1287,24.0
1327,24.00000000000011
1367,24.000000000000087
1407,24.00000000000003
1447,24.000000000000044
1487,24.00000000000004
1527,23.99999999999999
1567,24.000000000000005
1607,24.0
1647,24.00000000000003
1687,24.000000000000019
2,1, 7,21, 0,11, 0.00,10.00,SummerDesignDay
8,20.75370382828009
10,35618813.17318991
1801,0.0
1838,243233413.52360726
2,1, 7,21, 0,11,10.00,20.00,SummerDesignDay
8,20.82879725584293
10,35618813.17318991
1801,0.0
1838,247702356.51911698
2,1, 7,21, 0,11,20.00,30.00,SummerDesignDay
8,20.90366855164364
10,35618813.17318991
1801,0.0
1838,252211787.5624352
2,1, 7,21, 0,11,30.00,40.00,SummerDesignDay
8,20.978327197140595
10,35618813.17318991
1801,0.0
1838,256456602.4042581
2,1, 7,21, 0,11,40.00,50.00,SummerDesignDay
8,21.052770435649987
10,35618813.17318991
1801,0.0
1838,260520639.16487146
2,1, 7,21, 0,11,50.00,60.00,SummerDesignDay
8,21.126998315025806
10,35618813.17318991
1801,0.0
1838,264895830.8466474
2,1, 7,21, 0,11, 0.00,60.00,SummerDesignDay
927,24.0
967,24.000000000000026
1007,24.0
1047,24.00000000000003
1087,24.0
1127,24.000000000000019
1167,24.00000000000004
1207,24.00000000000007
1247,24.000000000000015
1287,24.000000000000033
1327,24.000000000000076
1367,24.00000000000009
1407,24.000000000000015
1447,24.000000000000026
1487,24.000000000000033
1527,24.000000000000026
1567,24.00000000000009
1607,24.0
1647,24.000000000000019
1687,24.000000000000033
2,1, 7,21, 0,12, 0.00,10.00,SummerDesignDay
8,21.176364764512436
10,26714109.879892429
1801,0.0
1838,262418001.3415799
2,1, 7,21, 0,12,10.00,20.00,SummerDesignDay
8,21.225636252128049
10,26714109.879892429
1801,0.0
1838,265454767.23360393
2,1, 7,21, 0,12,20.00,30.00,SummerDesignDay
8,21.27481408813442
10,26714109.879892429
1801,0.0
1838,269147578.1806423
2,1, 7,21, 0,12,30.00,40.00,SummerDesignDay
8,21.32389714161367
10,26714109.879892429
1801,0.0
1838,272792799.6194114
2,1, 7,21, 0,12,40.00,50.00,SummerDesignDay
8,21.372882039030619
10,26714109.879892429
1801,0.0
1838,276288853.38578358
2,1, 7,21, 0,12,50.00,60.00,SummerDesignDay
8,21.421778222706306
10,26714109.879892429
1801,0.0
1838,279521170.07743456
2,1, 7,21, 0,12, 0.00,60.00,SummerDesignDay
927,24.0
967,24.000000000000005
1007,24.0
1047,24.00000000000001
1087,24.0
1127,24.000000000000019
1167,24.000000000000026
1207,23.999999999999984
1247,24.000000000000015
1287,24.00000000000003
1327,23.999999999999976
1367,24.00000000000004
1407,24.000000000000005
1447,24.000000000000019
1487,24.00000000000003
1527,24.00000000000011
1567,24.00000000000004
1607,24.000000000000058
1647,24.000000000000058
1687,24.000000000000019
2,1, 7,21, 0,13, 0.00,10.00,SummerDesignDay
8,21.460829759656176
10,17809406.586594955
1801,0.0
1838,276003639.4092067
2,1, 7,21, 0,13,10.00,20.00,SummerDesignDay
8,21.499817003159384
10,17809406.586594955
1801,0.0
1838,277899647.8126641
2,1, 7,21, 0,13,20.00,30.00,SummerDesignDay
8,21.53875017563149
10,17809406.586594955
1801,0.0
1838,280124113.4843693
2,1, 7,21, 0,13,30.00,40.00,SummerDesignDay
8,21.57761871831439
10,17809406.586594955
1801,0.0
1838,282046124.3709199
2,1, 7,21, 0,13,40.00,50.00,SummerDesignDay
8,21.616433450967234
10,17809406.586594955
1801,0.0
1838,283755685.69444587
2,1, 7,21, 0,13,50.00,60.00,SummerDesignDay
8,21.655184624488759
10,17809406.586594955
1801,0.0
1838,285374918.88456156
2,1, 7,21, 0,13, 0.00,60.00,SummerDesignDay
927,24.00000000000001
967,23.999999999999984
1007,24.000000000000005
1047,24.000000000000015
1087,24.0
1127,24.00000000000004
1167,24.00000000000003
1207,24.000000000000097
1247,24.000000000000015
1287,24.000000000000015
1327,24.00000000000006
1367,24.000000000000019
1407,24.000000000000026
1447,24.0
1487,24.000000000000033
1527,24.00000000000003
1567,24.000000000000058
1607,24.00000000000004
1647,24.000000000000055
1687,23.999999999999984
2,1, 7,21, 0,14, 0.00,10.00,SummerDesignDay
8,21.67937576104208
10,17809406.586594955
1801,0.0
1838,286442651.44151219
2,1, 7,21, 0,14,10.00,20.00,SummerDesignDay
8,21.703544513972305
10,17809406.586594955
1801,0.0
1838,287647493.8895005
2,1, 7,21, 0,14,20.00,30.00,SummerDesignDay
8,21.727690125397957
10,17809406.586594955
1801,0.0
1838,288967176.83400776
2,1, 7,21, 0,14,30.00,40.00,SummerDesignDay
8,21.751812391480358
10,17809406.586594955
1801,0.0
1838,290455134.37895217
2,1, 7,21, 0,14,40.00,50.00,SummerDesignDay
8,21.7759121945202
10,17809406.586594955
1801,0.0
1838,291944299.5614739
2,1, 7,21, 0,14,50.00,60.00,SummerDesignDay
8,21.799989308895414
10,17809406.586594955
1801,0.0
1838,293293433.0366405
2,1, 7,21, 0,14, 0.00,60.00,SummerDesignDay
927,23.99999999999999
967,24.000000000000033
1007,24.000000000000015
1047,24.00000000000001
1087,24.0
1127,24.000000000000055
1167,23.999999999999998
1207,24.000000000000005
1247,24.000000000000047
1287,24.000000000000033
1327,23.999999999999984
1367,24.000000000000005
1407,24.000000000000033
1447,24.00000000000004
1487,24.000000000000019
1527,24.000000000000115
1567,24.000000000000044
1607,24.00000000000001
1647,24.000000000000055
1687,24.000000000000186
2,1, 7,21, 0,15, 0.00,10.00,SummerDesignDay
8,21.799989308895414
10,17809406.586594955
1801,0.0
1838,293787177.8350461
2,1, 7,21, 0,15,10.00,20.00,SummerDesignDay
8,21.799989308895414
10,17809406.586594955
1801,0.0
1838,294539797.1805259
2,1, 7,21, 0,15,20.00,30.00,SummerDesignDay
8,21.799989308895414
10,17809406.586594955
1801,0.0
1838,294910515.6411105
2,1, 7,21, 0,15,30.00,40.00,SummerDesignDay
8,21.799989308895414
10,17809406.586594955
1801,0.0
1838,294972841.72304967
2,1, 7,21, 0,15,40.00,50.00,SummerDesignDay
8,21.799989308895414
10,17809406.586594955
1801,0.0
1838,294783389.04179987
2,1, 7,21, 0,15,50.00,60.00,SummerDesignDay
8,21.799989308895414
10,17809406.586594955
1801,0.0
1838,294313671.2700032
2,1, 7,21, 0,15, 0.00,60.00,SummerDesignDay
927,24.00000000000003
967,24.000000000000015
1007,24.000000000000015
1047,24.000000000000015
1087,24.000000000000005
1127,24.000000000000015
1167,23.999999999999976
1207,24.000000000000005
1247,24.00000000000008
1287,24.00000000000001
1327,24.00000000000006
1367,24.000000000000069
1407,24.00000000000001
1447,24.00000000000007
1487,24.000000000000019
1527,24.000000000000055
1567,24.00000000000006
1607,24.00000000000003
1647,24.00000000000001
1687,24.000000000000055
2,1, 7,21, 0,16, 0.00,10.00,SummerDesignDay
8,21.771094855856704
10,17809406.586594955
1801,0.0
1838,292389967.79878059
2,1, 7,21, 0,16,10.00,20.00,SummerDesignDay
8,21.742168014681356
10,17809406.586594955
1801,0.0
1838,290168362.880959
2,1, 7,21, 0,16,20.00,30.00,SummerDesignDay
8,21.71320780280698
10,17809406.586594955
1801,0.0
1838,287663997.193468
2,1, 7,21, 0,16,30.00,40.00,SummerDesignDay
8,21.68421463192507
10,17809406.586594955
1801,0.0
1838,284813196.3397676
2,1, 7,21, 0,16,40.00,50.00,SummerDesignDay
8,21.655184624488759
10,17809406.586594955
1801,0.0
1838,281635643.52736338
2,1, 7,21, 0,16,50.00,60.00,SummerDesignDay
8,21.6261256071541
10,17809406.586594955
1801,0.0
1838,278108254.20379826
2,1, 7,21, 0,16, 0.00,60.00,SummerDesignDay
927,24.0
967,24.0
1007,24.0
1047,24.000000000000019
1087,23.999999999999998
1127,24.000000000000044
1167,24.000000000000005
1207,24.0
1247,24.000000000000143
1287,24.00000000000004
1327,24.00000000000004
1367,24.000000000000019
1407,24.000000000000019
1447,24.000000000000019
1487,24.00000000000001
1527,23.99999999999997
1567,24.000000000000055
1607,24.000000000000055
1647,24.00000000000004
1687,24.00000000000001
2,1, 7,21, 0,17, 0.00,10.00,SummerDesignDay
8,21.587330220761357
10,17809406.586594955
1801,0.0
1838,276310385.87985059
2,1, 7,21, 0,17,10.00,20.00,SummerDesignDay
8,21.548471336507889
10,17809406.586594955
1801,0.0
1838,271425250.5221321
2,1, 7,21, 0,17,20.00,30.00,SummerDesignDay
8,21.509558190151649
10,17809406.586594955
1801,0.0
1838,266346801.18289403
2,1, 7,21, 0,17,30.00,40.00,SummerDesignDay
8,21.470581299934044
10,17809406.586594955
1801,0.0
1838,261077628.45090948
2,1, 7,21, 0,17,40.00,50.00,SummerDesignDay
8,21.431549204917386
10,17809406.586594955
1801,0.0
1838,255858166.54380716
2,1, 7,21, 0,17,50.00,60.00,SummerDesignDay
8,21.392452600030727
10,17809406.586594955
1801,0.0
1838,250568559.8781861
2,1, 7,21, 0,17, 0.00,60.00,SummerDesignDay
927,24.000000000000033
967,23.999999999999987
1007,24.00000000000001
1047,24.000000000000033
1087,24.0
1127,23.999999999999998
1167,24.000000000000044
1207,23.999999999999998
1247,24.000000000000147
1287,24.00000000000016
1327,24.000000000000069
1367,24.000000000000015
1407,24.000000000000026
1447,24.000000000000044
1487,24.00000000000001
1527,24.000000000000026
1567,24.00000000000001
1607,23.999999999999955
1647,24.00000000000009
1687,24.00000000000013
2,1, 7,21, 0,18, 0.00,10.00,SummerDesignDay
8,21.343500800253975
10,17809406.586594955
1801,0.0
1838,249637138.5655357
2,1, 7,21, 0,18,10.00,20.00,SummerDesignDay
8,21.29445517999728
10,17809406.586594955
1801,0.0
1838,243730015.14662839
2,1, 7,21, 0,18,20.00,30.00,SummerDesignDay
8,21.24531961332415
10,17809406.586594955
1801,0.0
1838,237525373.3544847
2,1, 7,21, 0,18,30.00,40.00,SummerDesignDay
8,21.196085706061159
10,17809406.586594955
1801,0.0
1838,231143160.886087
2,1, 7,21, 0,18,40.00,50.00,SummerDesignDay
8,21.146756926413827
10,17809406.586594955
1801,0.0
1838,225017867.1346137
2,1, 7,21, 0,18,50.00,60.00,SummerDesignDay
8,21.097333755216899
10,17809406.586594955
1801,0.0
1838,219264588.05027906
2,1, 7,21, 0,18, 0.00,60.00,SummerDesignDay
927,24.000000000000019
967,24.000000000000033
1007,24.00000000000001
1047,24.00000000000001
1087,24.0
1127,24.000000000000058
1167,24.000000000000058
1207,24.000000000000019
1247,23.99999999999997
1287,24.000000000000097
1327,24.00000000000003
1367,24.00000000000001
1407,23.99999999999999
1447,23.999999999999969
1487,24.000000000000019
1527,24.00000000000003
1567,24.000000000000033
1607,24.00000000000004
1647,24.0
1687,24.000000000000047
2,1, 7,21, 0,19, 0.00,10.00,SummerDesignDay
8,21.023019732832933
10,17809406.586594955
1801,0.0
1838,212417543.88611643
2,1, 7,21, 0,19,10.00,20.00,SummerDesignDay
8,20.948490549703029
10,17809406.586594955
1801,0.0
1838,205236121.63312368
2,1, 7,21, 0,19,20.00,30.00,SummerDesignDay
8,20.873745184382885
10,17809406.586594955
1801,0.0
1838,197661147.11571438
2,1, 7,21, 0,19,30.00,40.00,SummerDesignDay
8,20.798782612519024
10,17809406.586594955
1801,0.0
1838,189162570.81905539
2,1, 7,21, 0,19,40.00,50.00,SummerDesignDay
8,20.723605634987398
10,17809406.586594955
1801,0.0
1838,180486749.8981386
2,1, 7,21, 0,19,50.00,60.00,SummerDesignDay
8,20.648205443782066
10,17809406.586594955
1801,0.0
1838,171299324.44123555
2,1, 7,21, 0,19, 0.00,60.00,SummerDesignDay
927,24.000000000000019
967,24.00000000000004
1007,23.999999999999998
1047,24.00000000000001
1087,24.0
1127,23.999999999999984
1167,24.00000000000003
1207,24.000000000000015
1247,24.000000000000033
1287,24.000000000000047
1327,24.000000000000026
1367,24.00000000000004
1407,24.000000000000005
1447,24.000000000000033
1487,24.000000000000005
1527,24.000000000000026
1567,24.00000000000001
1607,24.000000000000033
1647,24.000000000000126
1687,24.000000000000069
2,1, 7,21, 0,20, 0.00,10.00,SummerDesignDay
8,20.59277197915242
10,53428219.759784858
1801,0.0
1838,186101947.33294273
2,1, 7,21, 0,20,10.00,20.00,SummerDesignDay
8,20.537219972964399
10,53428219.759784858
1801,0.0
1838,177532615.399619
2,1, 7,21, 0,20,20.00,30.00,SummerDesignDay
8,20.48154799091199
10,53428219.759784858
1801,0.0
1838,166686358.17928569
2,1, 7,21, 0,20,30.00,40.00,SummerDesignDay
8,20.425752225515759
10,53428219.759784858
1801,0.0
1838,155062499.52159397
2,1, 7,21, 0,20,40.00,50.00,SummerDesignDay
8,20.369840248455387
10,53428219.759784858
1801,0.0
1838,148212635.7435825
2,1, 7,21, 0,20,50.00,60.00,SummerDesignDay
8,20.313807280186916
10,53428219.759784858
1801,0.0
1838,143294200.64646913
2,1, 7,21, 0,20, 0.00,60.00,SummerDesignDay
927,24.00000000000004
967,24.000000000000026
1007,24.000000000000015
1047,24.00000000000001
1087,24.0
1127,24.000000000000026
1167,24.000000000000005
1207,24.000000000000044
1247,24.000000000000005
1287,23.99999999999999
1327,24.00000000000001
1367,24.00000000000003
1407,24.0
1447,24.000000000000015
1487,23.99999999999999
1527,24.00000000000003
1567,24.000000000000026
1607,24.000000000000055
1647,24.000000000000015
1687,24.000000000000055
2,1, 7,21, 0,21, 0.00,10.00,SummerDesignDay
8,20.267875513679358
10,71237626.34637982
1801,0.0
1838,160293588.83174137
2,1, 7,21, 0,21,10.00,20.00,SummerDesignDay
8,20.221856772507928
10,71237626.34637982
1801,0.0
1838,158290587.84506167
2,1, 7,21, 0,21,20.00,30.00,SummerDesignDay
8,20.17575730066602
10,71237626.34637982
1801,0.0
1838,155350606.81999294
2,1, 7,21, 0,21,30.00,40.00,SummerDesignDay
8,20.129575525226004
10,71237626.34637982
1801,0.0
1838,152557707.42854847
2,1, 7,21, 0,21,40.00,50.00,SummerDesignDay
8,20.08331608345884
10,71237626.34637982
1801,0.0
1838,149900437.85926572
2,1, 7,21, 0,21,50.00,60.00,SummerDesignDay
8,20.03696962431749
10,71237626.34637982
1801,0.0
1838,147290959.02410499
2,1, 7,21, 0,21, 0.00,60.00,SummerDesignDay
927,24.000000000000019
967,24.000000000000033
1007,24.000000000000019
1047,24.00000000000001
1087,24.000000000000015
1127,24.00000000000001
1167,24.000000000000033
1207,24.00000000000001
1247,23.999999999999998
1287,24.000000000000058
1327,24.000000000000033
1367,24.000000000000015
1407,24.000000000000005
1447,24.00000000000001
1487,24.000000000000033
1527,24.00000000000001
1567,24.00000000000001