Program Version,EnergyPlus, Version 9.1.0-fafb9d5652, YMD=2019.11.04 14:44
1,5,Environment Title[],Latitude[deg],Longitude[deg],Time Zone[],Elevation[m]
2,8,Day of Simulation[],Month[],Day of Month[],DST Indicator[1=yes 0=no],Hour[],StartMinute[],EndMinute[],DayType
3,5,Cumulative Day of Simulation[],Month[],Day of Month[],DST Indicator[1=yes 0=no],DayType  ! When Daily Report Variables Requested
4,2,Cumulative Days of Simulation[],Month[]  ! When Monthly Report Variables Requested
5,1,Cumulative Days of Simulation[] ! When Run Period Report Variables Requested
6,1,Calendar Year of Simulation[] ! When Annual Report Variables Requested
7,9,Environment,Site Outdoor Air Drybulb Temperature [C] !Monthly [Value,Min,Day,Hour,Minute,Max,Day,Hour,Minute]
8,1,Environment,Site Outdoor Air Wetbulb Temperature [C] !TimeStep
1125,1,SP-STORY 1 EAST LOWER PERIMETER SPACE SYS-1 FLR-1 SCH-F HPLCMT-EAST ZN,Zone Air Temperature [C] !Hourly
1126,7,SP-STORY 1 EAST LOWER PERIMETER SPACE SYS-1 FLR-1 SCH-F HPLCMT-EAST ZN,Zone Air Relative Humidity [%] !Daily [Value,Min,Hour,Minute,Max,Hour,Minute]
1165,1,SP-STORY 1 EAST UPPER PERIMETER SPACE SYS-1 FLR-1 SCH-F HPLCMT-EAST ZN,Zone Air Temperature [C] !Hourly
1166,7,SP-STORY 1 EAST UPPER PERIMETER SPACE SYS-1 FLR-1 SCH-F HPLCMT-EAST ZN,Zone Air Relative Humidity [%] !Daily [Value,Min,Hour,Minute,Max,Hour,Minute]
1205,1,SP-STORY 1 NORTH CORE SPACE SYS-1 FLR-1 SCH-F HPLCMT-SOUTH ZN,Zone Air Temperature [C] !Hourly
1206,7,SP-STORY 1 NORTH CORE SPACE SYS-1 FLR-1 SCH-F HPLCMT-SOUTH ZN,Zone Air Relative Humidity [%] !Daily [Value,Min,Hour,Minute,Max,Hour,Minute]
1245,1,SP-STORY 1 NORTH PERIMETER SPACE SYS-1 FLR-1 SCH-F HPLCMT-NORTH ZN,Zone Air Temperature [C] !Hourly
1246,7,SP-STORY 1 NORTH PERIMETER SPACE SYS-1 FLR-1 SCH-F HPLCMT-NORTH ZN,Zone Air Relative Humidity [%] !Daily [Value,Min,Hour,Minute,Max,Hour,Minute]
1285,1,SP-STORY 1 SOUTH CORE SPACE SYS-1 FLR-1 SCH-F HPLCMT-NORTH ZN,Zone Air Temperature [C] !Hourly
1286,7,SP-STORY 1 SOUTH CORE SPACE SYS-1 FLR-1 SCH-F HPLCMT-NORTH ZN,Zone Air Relative Humidity [%] !Daily [Value,Min,Hour,Minute,Max,Hour,Minute]
1325,1,SP-STORY 1 SOUTH LOWER PERIMETER SPACE SYS-1 FLR-1 SCH-F HPLCMT-SOUTH ZN,Zone Air Temperature [C] !Hourly
1326,7,SP-STORY 1 SOUTH LOWER PERIMETER SPACE SYS-1 FLR-1 SCH-F HPLCMT-SOUTH ZN,Zone Air Relative Humidity [%] !Daily [Value,Min,Hour,Minute,Max,Hour,Minute]
1365,1,SP-STORY 1 SOUTH UPPER LEFT PERIMETER SPACE 1 SYS-1 FLR-1 SCH-F HPLCMT-NORTH ZN,Zone Air Temperature [C] !Hourly
1366,7,SP-STORY 1 SOUTH UPPER LEFT PERIMETER SPACE 1 SYS-1 FLR-1 SCH-F HPLCMT-NORTH ZN,Zone Air Relative Humidity [%] !Daily [Value,Min,Hour,Minute,Max,Hour,Minute]
1405,1,SP-STORY 1 SOUTH UPPER LEFT PERIMETER SPACE SYS-1 FLR-1 SCH-F HPLCMT-NORTH ZN,Zone Air Temperature [C] !Hourly
1406,7,SP-STORY 1 SOUTH UPPER LEFT PERIMETER SPACE SYS-1 FLR-1 SCH-F HPLCMT-NORTH ZN,Zone Air Relative Humidity [%] !Daily [Value,Min,Hour,Minute,Max,Hour,Minute]
1445,1,SP-STORY 1 WEST LOWER PERIMETER SPACE SYS-1 FLR-1 SCH-F HPLCMT-WEST ZN,Zone Air Temperature [C] !Hourly
1446,7,SP-STORY 1 WEST LOWER PERIMETER SPACE SYS-1 FLR-1 SCH-F HPLCMT-WEST ZN,Zone Air Relative Humidity [%] !Daily [Value,Min,Hour,Minute,Max,Hour,Minute]
1485,1,SP-STORY 1 WEST UPPER PERIMETER SPACE SYS-1 FLR-1 SCH-F HPLCMT-WEST ZN,Zone Air Temperature [C] !Hourly
1486,7,SP-STORY 1 WEST UPPER PERIMETER SPACE SYS-1 FLR-1 SCH-F HPLCMT-WEST ZN,Zone Air Relative Humidity [%] !Daily [Value,Min,Hour,Minute,Max,Hour,Minute]
1525,1,SP-STORY 2 EAST LOWER PERIMETER SPACE SYS-1 FLR-2 SCH-F HPLCMT-EAST ZN,Zone Air Temperature [C] !Hourly
1526,7,SP-STORY 2 EAST LOWER PERIMETER SPACE SYS-1 FLR-2 SCH-F HPLCMT-EAST ZN,Zone Air Relative Humidity [%] !Daily [Value,Min,Hour,Minute,Max,Hour,Minute]
1565,1,SP-STORY 2 EAST UPPER PERIMETER SPACE SYS-1 FLR-2 SCH-F HPLCMT-EAST ZN,Zone Air Temperature [C] !Hourly
1566,7,SP-STORY 2 EAST UPPER PERIMETER SPACE SYS-1 FLR-2 SCH-F HPLCMT-EAST ZN,Zone Air Relative Humidity [%] !Daily [Value,Min,Hour,Minute,Max,Hour,Minute]
1605,1,SP-STORY 2 NORTH CORE SPACE SYS-1 FLR-2 SCH-F HPLCMT-SOUTH ZN,Zone Air Temperature [C] !Hourly
1606,7,SP-STORY 2 NORTH CORE SPACE SYS-1 FLR-2 SCH-F HPLCMT-SOUTH ZN,Zone Air Relative Humidity [%] !Daily [Value,Min,Hour,Minute,Max,Hour,Minute]
1645,1,SP-STORY 2 NORTH PERIMETER SPACE SYS-1 FLR-2 SCH-F HPLCMT-NORTH ZN,Zone Air Temperature [C] !Hourly
1646,7,SP-STORY 2 NORTH PERIMETER SPACE SYS-1 FLR-2 SCH-F HPLCMT-NORTH ZN,Zone Air Relative Humidity [%] !Daily [Value,Min,Hour,Minute,Max,Hour,Minute]
1685,1,SP-STORY 2 SOUTH CORE SPACE SYS-1 FLR-2 SCH-F HPLCMT-NORTH ZN,Zone Air Temperature [C] !Hourly
1686,7,SP-STORY 2 SOUTH CORE SPACE SYS-1 FLR-2 SCH-F HPLCMT-NORTH ZN,Zone Air Relative Humidity [%] !Daily [Value,Min,Hour,Minute,Max,Hour,Minute]
1725,1,SP-STORY 2 SOUTH LOWER PERIMETER SPACE SYS-1 FLR-2 SCH-F HPLCMT-SOUTH ZN,Zone Air Temperature [C] !Hourly
1726,7,SP-STORY 2 SOUTH LOWER PERIMETER SPACE SYS-1 FLR-2 SCH-F HPLCMT-SOUTH ZN,Zone Air Relative Humidity [%] !Daily [Value,Min,Hour,Minute,Max,Hour,Minute]
1765,1,SP-STORY 2 SOUTH UPPER LEFT PERIMETER SPACE 1 SYS-1 FLR-2 SCH-F HPLCMT-NORTH ZN,Zone Air Temperature [C] !Hourly
1766,7,SP-STORY 2 SOUTH UPPER LEFT PERIMETER SPACE 1 SYS-1 FLR-2 SCH-F HPLCMT-NORTH ZN,Zone Air Relative Humidity [%] !Daily [Value,Min,Hour,Minute,Max,Hour,Minute]
1805,1,SP-STORY 2 SOUTH UPPER LEFT PERIMETER SPACE SYS-1 FLR-2 SCH-F HPLCMT-NORTH ZN,Zone Air Temperature [C] !Hourly
1806,7,SP-STORY 2 SOUTH UPPER LEFT PERIMETER SPACE SYS-1 FLR-2 SCH-F HPLCMT-NORTH ZN,Zone Air Relative Humidity [%] !Daily [Value,Min,Hour,Minute,Max,Hour,Minute]
1845,1,SP-STORY 2 WEST LOWER PERIMETER SPACE SYS-1 FLR-2 SCH-F HPLCMT-WEST ZN,Zone Air Temperature [C] !Hourly
1846,7,SP-STORY 2 WEST LOWER PERIMETER SPACE SYS-1 FLR-2 SCH-F HPLCMT-WEST ZN,Zone Air Relative Humidity [%] !Daily [Value,Min,Hour,Minute,Max,Hour,Minute]
1885,1,SP-STORY 2 WEST UPPER PERIMETER SPACE SYS-1 FLR-2 SCH-F HPLCMT-WEST ZN,Zone Air Temperature [C] !Hourly
1886,7,SP-STORY 2 WEST UPPER PERIMETER SPACE SYS-1 FLR-2 SCH-F HPLCMT-WEST ZN,Zone Air Relative Humidity [%] !Daily [Value,Min,Hour,Minute,Max,Hour,Minute]
10,1,Electricity:Facility [J] !TimeStep
891,1,Gas:Facility [J] !TimeStep
End of Data Dictionary
1,OTTAWA=MACDONALD-CARTIER INTL ANN CLG .4% CONDNS DB=>MWB,  45.32, -75.67,  -5.00, 114.90
2,1, 7,21, 0, 1, 0.00,10.00,SummerDesignDay
8,19.2840458690032
10,79816273.14677371
891,72644764.80061814
2,1, 7,21, 0, 1,10.00,20.00,SummerDesignDay
8,19.25220058801155
10,74918398.27915803
891,133503581.38774878
2,1, 7,21, 0, 1,20.00,30.00,SummerDesignDay
8,19.2203165671003
10,73807274.32778967
891,128798646.21287187
2,1, 7,21, 0, 1,30.00,40.00,SummerDesignDay
8,19.188388626363016
10,72936710.00004968
891,77269496.21545702
2,1, 7,21, 0, 1,40.00,50.00,SummerDesignDay
8,19.15642770709394
10,72085241.98193574
891,133528149.58452325
2,1, 7,21, 0, 1,50.00,60.00,SummerDesignDay
8,19.124427397166604
10,71213891.72933893
891,107964025.16441202
2,1, 7,21, 0, 1, 0.00,60.00,SummerDesignDay
1125,23.87854982896125
1165,23.880369914819565
1205,23.85983748534814
1245,23.874820831481029
1285,23.8585088321549
1325,23.87897576524377
1365,23.880779238128086
1405,23.88095833402015
1445,23.88303378956208
1485,23.885054932871456
1525,23.88127436218136
1565,23.882763520689769
1605,23.864991370275523
1645,23.879009168317123
1685,23.864549062115456
1725,23.881918134142884
1765,23.88334010655588
1805,23.883520334934088
1845,23.883560846985686
1885,23.885105393307325
2,1, 7,21, 0, 2, 0.00,10.00,SummerDesignDay
8,19.103070457286994
10,58665746.0161019
891,91770863.34716995
2,1, 7,21, 0, 2,10.00,20.00,SummerDesignDay
8,19.08170119193842
10,54069536.06540362
891,66104222.60138739
2,1, 7,21, 0, 2,20.00,30.00,SummerDesignDay
8,19.06030939273045
10,53152627.903432708
891,66122157.92158282
2,1, 7,21, 0, 2,30.00,40.00,SummerDesignDay
8,19.03890076386851
10,52327166.464185427
891,66137992.17349619
2,1, 7,21, 0, 2,40.00,50.00,SummerDesignDay
8,19.01747444558601
10,51484111.36824981
891,66153774.44365603
2,1, 7,21, 0, 2,50.00,60.00,SummerDesignDay
8,18.996036037989819
10,50677856.38033386
891,66169713.42687166
2,1, 7,21, 0, 2, 0.00,60.00,SummerDesignDay
1125,23.877076999867055
1165,23.87898445977642
1205,23.858181107220344
1245,23.87230793186768
1285,23.8562171437658
1325,23.87741776182419
1365,23.88013935017804
1405,23.880454184974
1445,23.881303322767935
1485,23.883064339996794
1525,23.879885621025037
1565,23.88139949301569
1605,23.863748997542407
1645,23.877369907145029
1685,23.863236840843567
1725,23.880519491407257
1765,23.882310093010749
1805,23.882549032574194
1845,23.88272485955093
1885,23.884291440083648
2,1, 7,21, 0, 3, 0.00,10.00,SummerDesignDay
8,18.97994058577143
10,49984427.793028008
891,63843153.42180828
2,1, 7,21, 0, 3,10.00,20.00,SummerDesignDay
8,18.96383509390068
10,47399450.74623233
891,63669753.09538026
2,1, 7,21, 0, 3,20.00,30.00,SummerDesignDay
8,18.947724870466826
10,46728863.318153638
891,165819.7039602618
2,1, 7,21, 0, 3,30.00,40.00,SummerDesignDay
8,18.931599991201066
10,46043530.18641967
891,63497222.59504257
2,1, 7,21, 0, 3,40.00,50.00,SummerDesignDay
8,18.915470425479847
10,45423603.53641936
891,63550589.7101147
2,1, 7,21, 0, 3,50.00,60.00,SummerDesignDay
8,18.8993255989201
10,44711472.96449644
891,63649779.00115462
2,1, 7,21, 0, 3, 0.00,60.00,SummerDesignDay
1125,23.875482494442229
1165,23.87745663116264
1205,23.856311157363835
1245,23.8682058629586
1285,23.852443250484567
1325,23.87562046878988
1365,23.878893486830479
1405,23.879305900495795
1445,23.88058995009317
1485,23.88241847829784
1525,23.87866768165415
1565,23.880165820926594
1605,23.862912568051099
1645,23.875896241005667
1685,23.862368623857749
1725,23.879247764118945
1765,23.88116711760193
1805,23.88146186673333
1845,23.881778178276833
1885,23.883349629747799
2,1, 7,21, 0, 4, 0.00,10.00,SummerDesignDay
8,18.883176400800605
10,32307982.246569329
891,165819.7039602618
2,1, 7,21, 0, 4,10.00,20.00,SummerDesignDay
8,18.867011710849643
10,30217196.85739425
891,56092882.90913873
2,1, 7,21, 0, 4,20.00,30.00,SummerDesignDay
8,18.850837592647797
10,29565512.947165599
891,6582786.89106861
2,1, 7,21, 0, 4,30.00,40.00,SummerDesignDay
8,18.834658360362007
10,29185616.221348466
891,165819.7039602618
2,1, 7,21, 0, 4,40.00,50.00,SummerDesignDay
8,18.8184648850153
10,28675235.41088267
891,61255012.057852249
2,1, 7,21, 0, 4,50.00,60.00,SummerDesignDay
8,18.8022655410338
10,28218710.259794028
891,165819.7039602618
2,1, 7,21, 0, 4, 0.00,60.00,SummerDesignDay
1125,23.87298736541597
1165,23.87520899255104
1205,23.85226609510403
1245,23.868588674404746
1285,23.852518067718138
1325,23.87178539449801
1365,23.876750999906979
1405,23.877408236185194
1445,23.879455584228024
1485,23.88135359443311
1525,23.877260605664686
1565,23.878746682959336
1605,23.828710219734594
1645,23.80207590269053
1685,23.82372322483386
1725,23.8762070402483
1765,23.81046253945735
1805,23.828491264604904
1845,23.880728585009
1885,23.882297760126816
2,1, 7,21, 0, 5, 0.00,10.00,SummerDesignDay
8,18.79145567867417
10,27847108.359383294
891,61490296.9366114
2,1, 7,21, 0, 5,10.00,20.00,SummerDesignDay
8,18.780646332866213
10,27477451.332712547
891,165819.7039602618
2,1, 7,21, 0, 5,20.00,30.00,SummerDesignDay
8,18.76983296444122
10,27160816.600588699
891,165819.7039602618
2,1, 7,21, 0, 5,30.00,40.00,SummerDesignDay
8,18.75901007085189
10,27089316.918240105
891,61240805.645801689
2,1, 7,21, 0, 5,40.00,50.00,SummerDesignDay
8,18.7481869937485
10,28008422.012826567
891,165819.7039602618
2,1, 7,21, 0, 5,50.00,60.00,SummerDesignDay
8,18.737365749092537
10,29702580.808490535
891,61483749.96547851
2,1, 7,21, 0, 5, 0.00,60.00,SummerDesignDay
1125,23.870913775773148
1165,23.87350839573413
1205,23.85271472441369
1245,23.86891613217053
1285,23.852997004113019
1325,23.86999514474675
1365,23.87451798360917
1405,23.875375807186037
1445,23.87807089572313
1485,23.88001548897712
1525,23.872705963950215
1565,23.875452137555447
1605,23.73908403981265
1645,23.716102665783116
1685,23.736965655351907
1725,23.822937413705089
1765,23.70305551750246
1805,23.729097527212646
1845,23.879576259535225
1885,23.881125670581736
2,1, 7,21, 0, 6, 0.00,10.00,SummerDesignDay
8,18.7481869937485
10,24376483.7956874
891,165819.7039602618
2,1, 7,21, 0, 6,10.00,20.00,SummerDesignDay
8,18.75901007085189
10,24496852.74983524
891,57203957.41016233
2,1, 7,21, 0, 6,20.00,30.00,SummerDesignDay
8,18.76983296444122
10,24616749.439713647
891,55449216.915119457
2,1, 7,21, 0, 6,30.00,40.00,SummerDesignDay
8,18.780646332866213
10,24736166.658618317
891,54974926.49040676
2,1, 7,21, 0, 6,40.00,50.00,SummerDesignDay
8,18.79145567867417
10,24855111.948104334
891,165819.7039602618
2,1, 7,21, 0, 6,50.00,60.00,SummerDesignDay
8,18.8022655410338
10,25340389.72943137
891,59322230.14149687
2,1, 7,21, 0, 6, 0.00,60.00,SummerDesignDay
1125,25.893531032763204
1165,26.502359809681694
1205,23.940169337069848
1245,24.295673879873978
1285,23.939854278189313
1325,24.07285000797476
1365,24.506430286514399
1405,24.50363329419602
1445,24.37909276661591
1485,24.446472223931136
1525,26.504023662401069
1565,26.895941624635769
1605,23.875313533345069
1645,24.441107946263668
1685,23.90157577290067
1725,24.05492938323412
1765,24.629364879301816
1805,24.606168365606356
1845,24.286296493936935
1885,24.33329560389691
2,1, 7,21, 0, 7, 0.00,10.00,SummerDesignDay
8,18.840052605786814
10,81798055.64963573
891,60543511.52434146
2,1, 7,21, 0, 7,10.00,20.00,SummerDesignDay
8,18.87778619489805
10,82277301.00623954
891,121300609.46484179
2,1, 7,21, 0, 7,20.00,30.00,SummerDesignDay
8,18.915470425479847
10,83323637.14725001
891,61420368.3480942
2,1, 7,21, 0, 7,30.00,40.00,SummerDesignDay
8,18.953096118062495
10,92207476.02991243
891,108990231.0977563
2,1, 7,21, 0, 7,40.00,50.00,SummerDesignDay
8,18.99066883495391
10,82921195.02932588
891,89171548.19579999
2,1, 7,21, 0, 7,50.00,60.00,SummerDesignDay
8,19.02819215483863
10,90522688.31885831
891,68990346.90451776
2,1, 7,21, 0, 7, 0.00,60.00,SummerDesignDay
1125,24.234283745461615
1165,24.34210530530604
1205,23.90885089945111
1245,23.925722311544037
1285,23.90909511546103
1325,23.915048147057438
1365,23.936272408217606
1405,23.932212150014967
1445,23.919862399919535
1485,23.921806724112686
1525,24.322722846745326
1565,24.352225724798588
1605,23.917250114680415
1645,23.941920634737074
1685,23.916370964302009
1725,23.920438229482376
1765,23.94648726843357
1805,23.93929418158182
1845,23.915379775318085
1885,23.916740760690744
2,1, 7,21, 0, 8, 0.00,10.00,SummerDesignDay
8,19.119090922986229
10,112847641.0104605
891,138434798.28527958
2,1, 7,21, 0, 8,10.00,20.00,SummerDesignDay
8,19.209676482065853
10,119787515.95672138
891,139709120.8452611
2,1, 7,21, 0, 8,20.00,30.00,SummerDesignDay
8,19.299951906634847
10,122722437.63813456
891,139723196.5914292
2,1, 7,21, 0, 8,30.00,40.00,SummerDesignDay
8,19.389928824990219
10,125591222.86465013
891,139735412.74851228
2,1, 7,21, 0, 8,40.00,50.00,SummerDesignDay
8,19.4795823892733
10,128525641.46656093
891,130350302.23547659
2,1, 7,21, 0, 8,50.00,60.00,SummerDesignDay
8,19.568935475929295
10,131449205.20568322
891,106527027.50702378
2,1, 7,21, 0, 8, 0.00,60.00,SummerDesignDay
1125,23.89646585022676
1165,23.899045242911059
1205,23.853452004517754
1245,23.877314927533438
1285,23.851254133531766
1325,23.87900713326833
1365,23.88499905365204
1405,23.884265277893989
1445,23.880158715363455
1485,23.882531218718243
1525,23.899901643434956
1565,23.90212978962333
1605,23.869108454280974
1645,23.88569101678202
1685,23.869106318554029
1725,23.88734040318526
1765,23.891181969455688
1805,23.890469670429046
1845,23.886714904945266
1885,23.888493948306878
2,1, 7,21, 0, 9, 0.00,10.00,SummerDesignDay
8,19.66844507688812
10,146233517.8126837
891,208525158.985257
2,1, 7,21, 0, 9,10.00,20.00,SummerDesignDay
8,19.767573179707669
10,154541570.7802403
891,162549518.42285959
2,1, 7,21, 0, 9,20.00,30.00,SummerDesignDay
8,19.866330746445795
10,156709208.760511
891,199538824.07445113
2,1, 7,21, 0, 9,30.00,40.00,SummerDesignDay
8,19.964711871061558
10,159207957.45499338
891,198650168.78711985
2,1, 7,21, 0, 9,40.00,50.00,SummerDesignDay
8,20.062727728864816
10,161828040.47052009
891,162602052.06643848
2,1, 7,21, 0, 9,50.00,60.00,SummerDesignDay
8,20.160375627757714
10,164345092.42105759
891,219011778.96531088
2,1, 7,21, 0, 9, 0.00,60.00,SummerDesignDay
1125,23.898465701600615
1165,23.900920837784118
1205,23.85733720724977
1245,23.879202347259839
1285,23.85540951048498
1325,23.88225960634414
1365,23.887111725521579
1405,23.886414262363294
1445,23.88180436536005
1485,23.88415144100054
1525,23.901624567806086
1565,23.90377016795677
1605,23.871160271042965
1645,23.88791920596405
1685,23.87102442157818
1725,23.890397769815299
1765,23.89353775588395
1805,23.892894249492774
1845,23.889240073178489
1885,23.89101044010736
2,1, 7,21, 0,10, 0.00,10.00,SummerDesignDay
8,20.247432286023
10,155028670.66215367
891,163011034.56086768
2,1, 7,21, 0,10,10.00,20.00,SummerDesignDay
8,20.334198251055687
10,153842771.19982083
891,146449826.3157961
2,1, 7,21, 0,10,20.00,30.00,SummerDesignDay
8,20.420674889330156
10,156147221.7673369
891,146468204.54024834
2,1, 7,21, 0,10,30.00,40.00,SummerDesignDay
8,20.50686410461129
10,158348685.78687964
891,146485864.71035338
2,1, 7,21, 0,10,40.00,50.00,SummerDesignDay
8,20.59277197915242
10,160458286.35540105
891,146503264.98236788
2,1, 7,21, 0,10,50.00,60.00,SummerDesignDay
8,20.67839100058158
10,162187753.73879255
891,146520514.34712783
2,1, 7,21, 0,10, 0.00,60.00,SummerDesignDay
1125,23.89855451826681
1165,23.900964333864633
1205,23.86070056291425
1245,23.88112049707318
1285,23.857439804738307
1325,23.886587617679039
1365,23.889661315196859
1405,23.88866818565931
1445,23.883249446002386
1485,23.885638629154788
1525,23.90169856752276
1565,23.90380451618527
1605,23.872991512670266
1645,23.890062869080795
1685,23.872723951317199
1725,23.893080154571835
1765,23.89593036834181
1805,23.89540134267212
1845,23.891299740887154
1885,23.89309342951727
2,1, 7,21, 0,11, 0.00,10.00,SummerDesignDay
8,20.75370382828009
10,161202326.56326107
891,134795407.92573048
2,1, 7,21, 0,11,10.00,20.00,SummerDesignDay
8,20.82879725584293
10,159140104.74583117
891,72063659.65242425
2,1, 7,21, 0,11,20.00,30.00,SummerDesignDay
8,20.90366855164364
10,160415718.81898997
891,133497296.15024199
2,1, 7,21, 0,11,30.00,40.00,SummerDesignDay
8,20.978327197140595
10,161598589.33833847
891,133623269.62060422
2,1, 7,21, 0,11,40.00,50.00,SummerDesignDay
8,21.052770435649987
10,162798878.73586045
891,72024653.07904476
2,1, 7,21, 0,11,50.00,60.00,SummerDesignDay
8,21.126998315025806
10,164187418.9186014
891,133513610.44698198
2,1, 7,21, 0,11, 0.00,60.00,SummerDesignDay
1125,23.89635365530403
1165,23.898792233363268
1205,23.863260496952923
1245,23.882677599328379
1285,23.8590945573382
1325,23.889594362475355
1365,23.892933568812557
1405,23.8923527133482
1445,23.884457632887103
1485,23.886901321457516
1525,23.899888281776105
1565,23.90195679761931
1605,23.87456709623602
1645,23.891657718409879
1685,23.87389338453357
1725,23.896378600369194
1765,23.898639718679175
1805,23.898240789828436
1845,23.89279156673418
1885,23.894643828810346
2,1, 7,21, 0,12, 0.00,10.00,SummerDesignDay
8,21.176364764512436
10,153629272.56573949
891,126387262.2802854
2,1, 7,21, 0,12,10.00,20.00,SummerDesignDay
8,21.225636252128049
10,154569936.20876975
891,79859464.90611203
2,1, 7,21, 0,12,20.00,30.00,SummerDesignDay
8,21.27481408813442
10,155815753.44877244
891,133530326.4479973
2,1, 7,21, 0,12,30.00,40.00,SummerDesignDay
8,21.32389714161367
10,157023519.51624627
891,105449572.74598025
2,1, 7,21, 0,12,40.00,50.00,SummerDesignDay
8,21.372882039030619
10,158102174.59257276
891,101547389.23403831
2,1, 7,21, 0,12,50.00,60.00,SummerDesignDay
8,21.421778222706306
10,159148382.43515904
891,133552974.50168467
2,1, 7,21, 0,12, 0.00,60.00,SummerDesignDay
1125,23.893502523220425
1165,23.895936099221247
1205,23.864818707684646
1245,23.883785139051118
1285,23.859905593839178
1325,23.893171669580608
1365,23.895949433761066
1405,23.895515714114457
1445,23.885336898600344
1485,23.88787363677913
1525,23.89769811804408
1565,23.899700698454038
1605,23.87582784075248
1645,23.892850004700958
1685,23.874668954569946
1725,23.89909014648305
1765,23.9009031130231
1805,23.900672212342927
1845,23.893886558231754
1885,23.89580325816232
2,1, 7,21, 0,13, 0.00,10.00,SummerDesignDay
8,21.460829759656176
10,148364056.33257175
891,69256287.23453617
2,1, 7,21, 0,13,10.00,20.00,SummerDesignDay
8,21.499817003159384
10,147359982.97943855
891,125319083.14981829
2,1, 7,21, 0,13,20.00,30.00,SummerDesignDay
8,21.53875017563149
10,147887084.70033358
891,71909250.8525734
2,1, 7,21, 0,13,30.00,40.00,SummerDesignDay
8,21.57761871831439
10,148338071.97618766
891,69012128.7496402
2,1, 7,21, 0,13,40.00,50.00,SummerDesignDay
8,21.616433450967234
10,148650697.50592078
891,127971529.98095201
2,1, 7,21, 0,13,50.00,60.00,SummerDesignDay
8,21.655184624488759
10,149059948.19906525
891,68925569.5063332
2,1, 7,21, 0,13, 0.00,60.00,SummerDesignDay
1125,23.891977859216074
1165,23.894428923337533
1205,23.865905408416667
1245,23.884589983340097
1285,23.860556186706846
1325,23.894974010456349
1365,23.89744718741782
1405,23.89720607329026
1445,23.886140209983585
1485,23.888726587490017
1525,23.896739024570178
1565,23.898724490235027
1605,23.876434218915404
1645,23.893447149704273
1685,23.875045222445299
1725,23.900302523195778
1765,23.901941115496233
1805,23.901829738109048
1845,23.894469317817984
1885,23.896433368039046
2,1, 7,21, 0,14, 0.00,10.00,SummerDesignDay
8,21.67937576104208
10,149332611.5127985
891,133018224.6643998
2,1, 7,21, 0,14,10.00,20.00,SummerDesignDay
8,21.703544513972305
10,151326341.6820765
891,72062410.07281105
2,1, 7,21, 0,14,20.00,30.00,SummerDesignDay
8,21.727690125397957
10,152038284.35300235
891,133497578.71136631
2,1, 7,21, 0,14,30.00,40.00,SummerDesignDay
8,21.751812391480358
10,153001248.25828738
891,133623969.75594563
2,1, 7,21, 0,14,40.00,50.00,SummerDesignDay
8,21.7759121945202
10,153970220.70780055
891,72023957.6600699
2,1, 7,21, 0,14,50.00,60.00,SummerDesignDay
8,21.799989308895414
10,155013037.14763049
891,133513906.89062484
2,1, 7,21, 0,14, 0.00,60.00,SummerDesignDay
1125,23.891490168928347
1165,23.893963947209185
1205,23.86608719257477
1245,23.885132411684937
1285,23.8612147771487
1325,23.895122342155898
1365,23.89762037184775
1405,23.897522581531903
1445,23.888803310117394
1485,23.89137085869749
1525,23.896424800223018
1565,23.898417817754877
1605,23.87641853993296
1645,23.893642368965148
1685,23.875065837753615
1725,23.90014156305419
1765,23.901864249159148
1805,23.901824794024198
1845,23.89585149793672
1885,23.89786179281082
2,1, 7,21, 0,15, 0.00,10.00,SummerDesignDay
8,21.799989308895414
10,155609447.94761516
891,69314411.94645924
2,1, 7,21, 0,15,10.00,20.00,SummerDesignDay
8,21.799989308895414
10,154482465.17630635
891,127969164.00966421
2,1, 7,21, 0,15,20.00,30.00,SummerDesignDay
8,21.799989308895414
10,154668854.9726974
891,68926291.5861669
2,1, 7,21, 0,15,30.00,40.00,SummerDesignDay
8,21.799989308895414
10,154626830.7613708
891,93283392.94524776
2,1, 7,21, 0,15,40.00,50.00,SummerDesignDay
8,21.799989308895414
10,154340449.31951148
891,104986181.40469486
2,1, 7,21, 0,15,50.00,60.00,SummerDesignDay
8,21.799989308895414
10,154094610.10488848
891,68972668.20552016
2,1, 7,21, 0,15, 0.00,60.00,SummerDesignDay
1125,23.891012443065507
1165,23.89348354536025
1205,23.865962630035246
1245,23.88541843628475
1285,23.862008686636228
1325,23.89397217798457
1365,23.896747790028426
1405,23.896779977858328
1445,23.894333681204175
1485,23.896815149776886
1525,23.895937586298119
1565,23.897925744533138
1605,23.87589984616481
1645,23.893408520070776
1685,23.874825264507647
1725,23.898877701902639
1765,23.90083002146459
1805,23.900884519963186
1845,23.89947521501219
1885,23.901562308353435
2,1, 7,21, 0,16, 0.00,10.00,SummerDesignDay
8,21.771094855856704
10,153168541.5256709
891,66496957.6906399
2,1, 7,21, 0,16,10.00,20.00,SummerDesignDay
8,21.742168014681356
10,150439224.8116697
891,78691345.0973914
2,1, 7,21, 0,16,20.00,30.00,SummerDesignDay
8,21.71320780280698
10,149086188.4389734
891,107892103.19400388
2,1, 7,21, 0,16,30.00,40.00,SummerDesignDay
8,21.68421463192507
10,147511552.21232013
891,69797882.84855588
2,1, 7,21, 0,16,40.00,50.00,SummerDesignDay
8,21.655184624488759
10,145832132.8604086
891,66104731.053045
2,1, 7,21, 0,16,50.00,60.00,SummerDesignDay
8,21.6261256071541
10,144062757.99601037
891,66119766.824107188
2,1, 7,21, 0,16, 0.00,60.00,SummerDesignDay
1125,23.890571108186859
1165,23.893026472475133
1205,23.86569247629164
1245,23.885545624039314
1285,23.86273253748078
1325,23.892728435354515
1365,23.895786916778776
1405,23.89598935177094
1445,23.898572448268099
1485,23.901055364312584
1525,23.89532300337437
1565,23.897296724846187
1605,23.87525364671383
1645,23.892974832244204
1685,23.874463591180075
1725,23.897527909543887
1765,23.899673077759606
1805,23.899881215566823
1845,23.902601572282923
1885,23.904753191259976
2,1, 7,21, 0,17, 0.00,10.00,SummerDesignDay
8,21.587330220761357
10,143174742.09639628
891,66135380.280510779
2,1, 7,21, 0,17,10.00,20.00,SummerDesignDay
8,21.548471336507889
10,140918391.793325
891,66151140.22543295
2,1, 7,21, 0,17,20.00,30.00,SummerDesignDay
8,21.509558190151649
10,138694138.78374253
891,66167053.74877041
2,1, 7,21, 0,17,30.00,40.00,SummerDesignDay
8,21.470581299934044
10,136469241.47366757
891,66183120.74833443
2,1, 7,21, 0,17,40.00,50.00,SummerDesignDay
8,21.431549204917386
10,134362870.50186736
891,66199340.89501525
2,1, 7,21, 0,17,50.00,60.00,SummerDesignDay
8,21.392452600030727
10,132297609.0508476
891,66215713.82242112
2,1, 7,21, 0,17, 0.00,60.00,SummerDesignDay
1125,23.889880083295926
1165,23.892300540107568
1205,23.865278738040347
1245,23.885239901646277
1285,23.863043174740814
1325,23.89121066704023
1365,23.894621046131986
1405,23.89494332153315
1445,23.900807178711735
1485,23.903246819639774
1525,23.89418408505395
1565,23.896143620588718
1605,23.874073068333478
1645,23.891924439416603
1685,23.873516867565486
1725,23.895817340887594
1765,23.898152407150268
1805,23.898512398571353
1845,23.90387670272263
1885,23.906047975589745
2,1, 7,21, 0,18, 0.00,10.00,SummerDesignDay
8,21.343500800253975
10,132230649.56858309
891,66232239.10888771
2,1, 7,21, 0,18,10.00,20.00,SummerDesignDay
8,21.29445517999728
10,129999034.35226543
891,103136237.94691591
2,1, 7,21, 0,18,20.00,30.00,SummerDesignDay
8,21.24531961332415
10,127691970.03566787
891,87137064.4219505
2,1, 7,21, 0,18,30.00,40.00,SummerDesignDay
8,21.196085706061159
10,125300980.2497395
891,66100376.57213239
2,1, 7,21, 0,18,40.00,50.00,SummerDesignDay
8,21.146756926413827
10,122817618.86559586
891,66113363.018707048
2,1, 7,21, 0,18,50.00,60.00,SummerDesignDay
8,21.097333755216899
10,120229719.34278907
891,66128839.42856977
2,1, 7,21, 0,18, 0.00,60.00,SummerDesignDay
1125,23.88879607311325
1165,23.891169278854126
1205,23.864821899530559
1245,23.88490002490656
1285,23.863043531978965
1325,23.889862797949136
1365,23.893555483756093
1405,23.89397377959125
1445,23.90121938465447
1485,23.90369360139279
1525,23.89242366469706
1565,23.89436393576236
1605,23.872529928021164
1645,23.89047283149702
1685,23.872145529766696
1725,23.893821624871618
1765,23.896355844693134
1805,23.896851488772673
1845,23.903536227532073
1885,23.905741645844548
2,1, 7,21, 0,19, 0.00,10.00,SummerDesignDay
8,21.023019732832933
10,117201056.1671127
891,66144537.053981568
2,1, 7,21, 0,19,10.00,20.00,SummerDesignDay
8,20.948490549703029
10,114006411.23103586
891,66160386.391247618
2,1, 7,21, 0,19,20.00,30.00,SummerDesignDay
8,20.873745184382885
10,110731415.90782333
891,66176389.306972328
2,1, 7,21, 0,19,30.00,40.00,SummerDesignDay
8,20.798782612519024
10,107146280.95462986
891,66192545.51062443
2,1, 7,21, 0,19,40.00,50.00,SummerDesignDay
8,20.723605634987398
10,103544286.99446279
891,66208854.6539961
2,1, 7,21, 0,19,50.00,60.00,SummerDesignDay
8,20.648205443782066
10,99744823.30090115
891,66225316.340233478
2,1, 7,21, 0,19, 0.00,60.00,SummerDesignDay
1125,23.88734948358667
1165,23.88968268505177
1205,23.864213344010364
1245,23.885293836952813
1285,23.862936605678759
1325,23.888386569795359
1365,23.89299732614336
1405,23.893462442930443
1445,23.899535089802798
1485,23.902283434889225
1525,23.890115109233404
1565,23.892061402951176
1605,23.87053936581562
1645,23.889391398279668
1685,23.87030633804827
1725,23.891505281471486
1765,23.89494078099499
1805,23.89550894196361
1845,23.90135281130951
1885,23.903667684034386
2,1, 7,21, 0,20, 0.00,10.00,SummerDesignDay
8,20.59277197915242
10,141767705.3815
891,132346574.43540094
2,1, 7,21, 0,20,10.00,20.00,SummerDesignDay
8,20.537219972964399
10,141135973.8509162
891,132506781.47797348
2,1, 7,21, 0,20,20.00,30.00,SummerDesignDay
8,20.48154799091199
10,137038368.18617777
891,73242475.36959666
2,1, 7,21, 0,20,30.00,40.00,SummerDesignDay
8,20.425752225515759
10,132677601.94506613
891,133524986.28282042
2,1, 7,21, 0,20,40.00,50.00,SummerDesignDay
8,20.369840248455387
10,130447697.64948341
891,111827202.81049364
2,1, 7,21, 0,20,50.00,60.00,SummerDesignDay
8,20.313807280186916
10,128912017.41895516
891,95085908.1852871
2,1, 7,21, 0,20, 0.00,60.00,SummerDesignDay
1125,23.885484272317627
1165,23.88772723167553
1205,23.863515425194238
1245,23.88375568483417
1285,23.862348402354756
1325,23.886316098681936
1365,23.891040846111065
1405,23.891493581797176
1445,23.893892075608546
1485,23.89679637016235
1525,23.887381275922136
1565,23.88928886030509
1605,23.868748453810836
1645,23.88712042145768
1685,23.86849737453296
1725,23.88859230439786
1765,23.89232087822431
1805,23.892876627778933
1845,23.89497553535519
1885,23.897426706965935
2,1, 7,21, 0,21, 0.00,10.00,SummerDesignDay
8,20.267875513679358
10,153125107.1883366
891,145108533.05218119
2,1, 7,21, 0,21,10.00,20.00,SummerDesignDay
8,20.221856772507928
10,155867558.01717348
891,146573647.87342964
2,1, 7,21, 0,21,20.00,30.00,SummerDesignDay
8,20.17575730066602
10,155264022.84314773
891,146593157.91382135