Program Version,EnergyPlus, Version 9.1.0-fafb9d5652, YMD=2019.10.28 21:42
1,5,Environment Title[],Latitude[deg],Longitude[deg],Time Zone[],Elevation[m]
2,8,Day of Simulation[],Month[],Day of Month[],DST Indicator[1=yes 0=no],Hour[],StartMinute[],EndMinute[],DayType
3,5,Cumulative Day of Simulation[],Month[],Day of Month[],DST Indicator[1=yes 0=no],DayType  ! When Daily Report Variables Requested
4,2,Cumulative Days of Simulation[],Month[]  ! When Monthly Report Variables Requested
5,1,Cumulative Days of Simulation[] ! When Run Period Report Variables Requested
6,1,Calendar Year of Simulation[] ! When Annual Report Variables Requested
7,9,Environment,Site Outdoor Air Drybulb Temperature [C] !Monthly [Value,Min,Day,Hour,Minute,Max,Day,Hour,Minute]
8,1,Environment,Site Outdoor Air Wetbulb Temperature [C] !TimeStep
1003,1,STORY 1 EAST CORE SPACE ZN,Zone Air Temperature [C] !Hourly
1004,7,STORY 1 EAST CORE SPACE ZN,Zone Air Relative Humidity [%] !Daily [Value,Min,Hour,Minute,Max,Hour,Minute]
1043,1,STORY 1 EAST LEFT PERIMETER SPACE ZN,Zone Air Temperature [C] !Hourly
1044,7,STORY 1 EAST LEFT PERIMETER SPACE ZN,Zone Air Relative Humidity [%] !Daily [Value,Min,Hour,Minute,Max,Hour,Minute]
1083,1,STORY 1 EAST RIGHT PERIMETER SPACE ZN,Zone Air Temperature [C] !Hourly
1084,7,STORY 1 EAST RIGHT PERIMETER SPACE ZN,Zone Air Relative Humidity [%] !Daily [Value,Min,Hour,Minute,Max,Hour,Minute]
1123,1,STORY 1 NORTH LEFT PERIMETER SPACE ZN,Zone Air Temperature [C] !Hourly
1124,7,STORY 1 NORTH LEFT PERIMETER SPACE ZN,Zone Air Relative Humidity [%] !Daily [Value,Min,Hour,Minute,Max,Hour,Minute]
1163,1,STORY 1 NORTH LOWER PERIMETER SPACE ZN,Zone Air Temperature [C] !Hourly
1164,7,STORY 1 NORTH LOWER PERIMETER SPACE ZN,Zone Air Relative Humidity [%] !Daily [Value,Min,Hour,Minute,Max,Hour,Minute]
1203,1,STORY 1 NORTH RIGHT PERIMETER SPACE ZN,Zone Air Temperature [C] !Hourly
1204,7,STORY 1 NORTH RIGHT PERIMETER SPACE ZN,Zone Air Relative Humidity [%] !Daily [Value,Min,Hour,Minute,Max,Hour,Minute]
1243,1,STORY 1 SOUTH CORE SPACE ZN,Zone Air Temperature [C] !Hourly
1244,7,STORY 1 SOUTH CORE SPACE ZN,Zone Air Relative Humidity [%] !Daily [Value,Min,Hour,Minute,Max,Hour,Minute]
1283,1,STORY 1 SOUTH LOWER PERIMETER SPACE ZN,Zone Air Temperature [C] !Hourly
1284,7,STORY 1 SOUTH LOWER PERIMETER SPACE ZN,Zone Air Relative Humidity [%] !Daily [Value,Min,Hour,Minute,Max,Hour,Minute]
1323,1,STORY 1 WEST CORE SPACE ZN,Zone Air Temperature [C] !Hourly
1324,7,STORY 1 WEST CORE SPACE ZN,Zone Air Relative Humidity [%] !Daily [Value,Min,Hour,Minute,Max,Hour,Minute]
1363,1,STORY 1 WEST LEFT PERIMETER SPACE ZN,Zone Air Temperature [C] !Hourly
1364,7,STORY 1 WEST LEFT PERIMETER SPACE ZN,Zone Air Relative Humidity [%] !Daily [Value,Min,Hour,Minute,Max,Hour,Minute]
1403,1,STORY 1 WEST RIGHT PERIMETER SPACE ZN,Zone Air Temperature [C] !Hourly
1404,7,STORY 1 WEST RIGHT PERIMETER SPACE ZN,Zone Air Relative Humidity [%] !Daily [Value,Min,Hour,Minute,Max,Hour,Minute]
1443,1,STORY 2 EAST CORE SPACE ZN,Zone Air Temperature [C] !Hourly
1444,7,STORY 2 EAST CORE SPACE ZN,Zone Air Relative Humidity [%] !Daily [Value,Min,Hour,Minute,Max,Hour,Minute]
1483,1,STORY 2 EAST LEFT PERIMETER SPACE ZN,Zone Air Temperature [C] !Hourly
1484,7,STORY 2 EAST LEFT PERIMETER SPACE ZN,Zone Air Relative Humidity [%] !Daily [Value,Min,Hour,Minute,Max,Hour,Minute]
1523,1,STORY 2 EAST RIGHT PERIMETER SPACE ZN,Zone Air Temperature [C] !Hourly
1524,7,STORY 2 EAST RIGHT PERIMETER SPACE ZN,Zone Air Relative Humidity [%] !Daily [Value,Min,Hour,Minute,Max,Hour,Minute]
1563,1,STORY 2 NORTH LEFT PERIMETER SPACE ZN,Zone Air Temperature [C] !Hourly
1564,7,STORY 2 NORTH LEFT PERIMETER SPACE ZN,Zone Air Relative Humidity [%] !Daily [Value,Min,Hour,Minute,Max,Hour,Minute]
1603,1,STORY 2 NORTH LOWER PERIMETER SPACE ZN,Zone Air Temperature [C] !Hourly
1604,7,STORY 2 NORTH LOWER PERIMETER SPACE ZN,Zone Air Relative Humidity [%] !Daily [Value,Min,Hour,Minute,Max,Hour,Minute]
1643,1,STORY 2 NORTH RIGHT PERIMETER SPACE ZN,Zone Air Temperature [C] !Hourly
1644,7,STORY 2 NORTH RIGHT PERIMETER SPACE ZN,Zone Air Relative Humidity [%] !Daily [Value,Min,Hour,Minute,Max,Hour,Minute]
1683,1,STORY 2 SOUTH CORE SPACE ZN,Zone Air Temperature [C] !Hourly
1684,7,STORY 2 SOUTH CORE SPACE ZN,Zone Air Relative Humidity [%] !Daily [Value,Min,Hour,Minute,Max,Hour,Minute]
1723,1,STORY 2 SOUTH LOWER PERIMETER SPACE ZN,Zone Air Temperature [C] !Hourly
1724,7,STORY 2 SOUTH LOWER PERIMETER SPACE ZN,Zone Air Relative Humidity [%] !Daily [Value,Min,Hour,Minute,Max,Hour,Minute]
1763,1,STORY 2 WEST CORE SPACE ZN,Zone Air Temperature [C] !Hourly
1764,7,STORY 2 WEST CORE SPACE ZN,Zone Air Relative Humidity [%] !Daily [Value,Min,Hour,Minute,Max,Hour,Minute]
1803,1,STORY 2 WEST LEFT PERIMETER SPACE ZN,Zone Air Temperature [C] !Hourly
1804,7,STORY 2 WEST LEFT PERIMETER SPACE ZN,Zone Air Relative Humidity [%] !Daily [Value,Min,Hour,Minute,Max,Hour,Minute]
1843,1,STORY 2 WEST RIGHT PERIMETER SPACE ZN,Zone Air Temperature [C] !Hourly
1844,7,STORY 2 WEST RIGHT PERIMETER SPACE ZN,Zone Air Relative Humidity [%] !Daily [Value,Min,Hour,Minute,Max,Hour,Minute]
10,1,Electricity:Facility [J] !TimeStep
1994,1,DistrictCooling:Facility [J] !TimeStep
1957,1,DistrictHeating:Facility [J] !TimeStep
End of Data Dictionary
1,OTTAWA=MACDONALD-CARTIER INTL ANN CLG .4% CONDNS DB=>MWB,  45.32, -75.67,  -5.00, 114.90
2,1, 7,21, 0, 1, 0.00,10.00,SummerDesignDay
8,19.2840458690032
10,44286340.39888897
1957,0.0
1994,111991117.45288168
2,1, 7,21, 0, 1,10.00,20.00,SummerDesignDay
8,19.25220058801155
10,44286340.39888897
1957,0.0
1994,108269107.19950293
2,1, 7,21, 0, 1,20.00,30.00,SummerDesignDay
8,19.2203165671003
10,44286340.39888897
1957,0.0
1994,106111804.07110656
2,1, 7,21, 0, 1,30.00,40.00,SummerDesignDay
8,19.188388626363016
10,44286340.39888897
1957,0.0
1994,104008787.73973182
2,1, 7,21, 0, 1,40.00,50.00,SummerDesignDay
8,19.15642770709394
10,44286340.39888897
1957,0.0
1994,101988161.13917904
2,1, 7,21, 0, 1,50.00,60.00,SummerDesignDay
8,19.124427397166604
10,44286340.39888897
1957,0.0
1994,100032705.83113235
2,1, 7,21, 0, 1, 0.00,60.00,SummerDesignDay
1003,24.000000000000019
1043,24.000000000000005
1083,24.000000000000019
1123,24.000000000000015
1163,24.00000000000001
1203,24.0
1243,24.00000000000001
1283,24.000000000000005
1323,24.00000000000001
1363,24.00000000000001
1403,24.000000000000033
1443,24.00000000000001
1483,24.000000000000015
1523,24.000000000000005
1563,24.000000000000015
1603,24.000000000000015
1643,24.0
1683,24.0
1723,24.000000000000019
1763,23.999999999999998
1803,24.000000000000019
1843,24.000000000000019
2,1, 7,21, 0, 2, 0.00,10.00,SummerDesignDay
8,19.103070457286994
10,12004361.059527565
1957,0.0
1994,63497570.88261144
2,1, 7,21, 0, 2,10.00,20.00,SummerDesignDay
8,19.08170119193842
10,12004361.059527565
1957,0.0
1994,57793841.58100969
2,1, 7,21, 0, 2,20.00,30.00,SummerDesignDay
8,19.06030939273045
10,12004361.059527565
1957,0.0
1994,54538911.045044939
2,1, 7,21, 0, 2,30.00,40.00,SummerDesignDay
8,19.03890076386851
10,12004361.059527565
1957,0.0
1994,51352048.115408618
2,1, 7,21, 0, 2,40.00,50.00,SummerDesignDay
8,19.01747444558601
10,12004361.059527565
1957,0.0
1994,48478289.12071706
2,1, 7,21, 0, 2,50.00,60.00,SummerDesignDay
8,18.996036037989819
10,12004361.059527565
1957,0.0
1994,45761820.55712985
2,1, 7,21, 0, 2, 0.00,60.00,SummerDesignDay
1003,24.000000000000005
1043,24.0
1083,24.00000000000001
1123,24.0
1163,24.00000000000001
1203,24.000000000000005
1243,24.000000000000005
1283,24.000000000000005
1323,24.00000000000001
1363,24.000000000000019
1403,24.00000000000001
1443,24.000000000000005
1483,24.00000000000001
1523,24.00000000000001
1563,24.0
1603,24.00000000000001
1643,24.000000000000005
1683,24.0
1723,24.0
1763,24.0
1803,24.000000000000005
1843,24.000000000000005
2,1, 7,21, 0, 3, 0.00,10.00,SummerDesignDay
8,18.97994058577143
10,12004361.059527565
1957,0.0
1994,43318024.71100092
2,1, 7,21, 0, 3,10.00,20.00,SummerDesignDay
8,18.96383509390068
10,12004361.059527565
1957,0.0
1994,41118818.88712134
2,1, 7,21, 0, 3,20.00,30.00,SummerDesignDay
8,18.947724870466826
10,12004361.059527565
1957,0.0
1994,39234058.871079128
2,1, 7,21, 0, 3,30.00,40.00,SummerDesignDay
8,18.931599991201066
10,12004361.059527565
1957,0.0
1994,37440088.32891457
2,1, 7,21, 0, 3,40.00,50.00,SummerDesignDay
8,18.915470425479847
10,12004361.059527565
1957,0.0
1994,35732489.88761042
2,1, 7,21, 0, 3,50.00,60.00,SummerDesignDay
8,18.8993255989201
10,12004361.059527565
1957,0.0
1994,34120633.85904424
2,1, 7,21, 0, 3, 0.00,60.00,SummerDesignDay
1003,23.999999999999998
1043,24.00000000000001
1083,24.000000000000005
1123,24.0
1163,24.000000000000005
1203,24.000000000000005
1243,24.000000000000005
1283,24.0
1323,24.000000000000005
1363,24.00000000000001
1403,24.00000000000001
1443,24.000000000000005
1483,24.000000000000005
1523,24.000000000000005
1563,23.993831491854878
1603,23.99832858706736
1643,23.993100305040618
1683,24.00000000000001
1723,24.0
1763,24.0
1803,24.00000000000001
1843,24.000000000000015
2,1, 7,21, 0, 4, 0.00,10.00,SummerDesignDay
8,18.883176400800605
10,12004361.059527565
1957,0.0
1994,32534579.7165543
2,1, 7,21, 0, 4,10.00,20.00,SummerDesignDay
8,18.867011710849643
10,12004361.059527565
1957,0.0
1994,30946409.45288087
2,1, 7,21, 0, 4,20.00,30.00,SummerDesignDay
8,18.850837592647797
10,12004361.059527565
1957,0.0
1994,29386561.174017349
2,1, 7,21, 0, 4,30.00,40.00,SummerDesignDay
8,18.834658360362007
10,12004361.059527565
1957,0.0
1994,27874521.35483077
2,1, 7,21, 0, 4,40.00,50.00,SummerDesignDay
8,18.8184648850153
10,12004361.059527565
1957,0.0
1994,26451182.434624863
2,1, 7,21, 0, 4,50.00,60.00,SummerDesignDay
8,18.8022655410338
10,12004361.059527565
1957,0.0
1994,25073461.081838427
2,1, 7,21, 0, 4, 0.00,60.00,SummerDesignDay
1003,24.0
1043,24.000000000000005
1083,24.0
1123,23.999638706461668
1163,24.0
1203,23.99926924441712
1243,24.00000000000001
1283,24.0
1323,23.999999999999998
1363,23.999999999999998
1403,24.000000000000005
1443,24.000000000000005
1483,24.0
1523,24.0
1563,23.874075861896427
1603,23.90490605297904
1643,23.87038459812294
1683,24.0
1723,23.992044262019193
1763,24.0
1803,24.00000000000001
1843,24.000000000000005
2,1, 7,21, 0, 5, 0.00,10.00,SummerDesignDay
8,18.79145567867417
10,12004361.059527565
1957,0.0
1994,23906249.503257764
2,1, 7,21, 0, 5,10.00,20.00,SummerDesignDay
8,18.780646332866213
10,12004361.059527565
1957,0.0
1994,22772598.793541295
2,1, 7,21, 0, 5,20.00,30.00,SummerDesignDay
8,18.76983296444122
10,12004361.059527565
1957,0.0
1994,21641474.45704547
2,1, 7,21, 0, 5,30.00,40.00,SummerDesignDay
8,18.75901007085189
10,12004361.059527565
1957,0.0
1994,21668689.220934068
2,1, 7,21, 0, 5,40.00,50.00,SummerDesignDay
8,18.7481869937485
10,12004361.059527565
1957,0.0
1994,24098588.91978824
2,1, 7,21, 0, 5,50.00,60.00,SummerDesignDay
8,18.737365749092537
10,12004361.059527565
1957,0.0
1994,30314859.63189979
2,1, 7,21, 0, 5, 0.00,60.00,SummerDesignDay
1003,24.0
1043,24.0
1083,24.0
1123,23.975756009173794
1163,23.964990529751934
1203,23.97226963890815
1243,24.0
1283,24.000000000000005
1323,24.0
1363,24.00000000000001
1403,24.00000000000001
1443,24.0
1483,23.98969260489464
1523,23.988544750943473
1563,23.81363312495363
1603,23.78769143800734
1643,23.810291094537378
1683,24.000000000000005
1723,23.909978453238609
1763,24.0
1803,24.000000000000005
1843,24.00000000000001
2,1, 7,21, 0, 6, 0.00,10.00,SummerDesignDay
8,18.7481869937485
10,12004361.059527565
1957,0.0
1994,39992550.69149108
2,1, 7,21, 0, 6,10.00,20.00,SummerDesignDay
8,18.75901007085189
10,12004361.059527565
1957,0.0
1994,49019954.159893449
2,1, 7,21, 0, 6,20.00,30.00,SummerDesignDay
8,18.76983296444122
10,12004361.059527565
1957,0.0
1994,60219511.02824926
2,1, 7,21, 0, 6,30.00,40.00,SummerDesignDay
8,18.780646332866213
10,12004361.059527565
1957,0.0
1994,73013965.0350802
2,1, 7,21, 0, 6,40.00,50.00,SummerDesignDay
8,18.79145567867417
10,12004361.059527565
1957,0.0
1994,85596630.92497689
2,1, 7,21, 0, 6,50.00,60.00,SummerDesignDay
8,18.8022655410338
10,12004361.059527565
1957,0.0
1994,94965229.23515833
2,1, 7,21, 0, 6, 0.00,60.00,SummerDesignDay
1003,24.0
1043,24.000000000000058
1083,24.000000000000033
1123,23.99999981535811
1163,23.9950335870388
1203,23.999999791400854
1243,24.0
1283,24.0
1323,23.999999999999998
1363,24.0
1403,24.000000000000019
1443,24.0
1483,23.99999950104173
1523,23.999999944451717
1563,23.999983534377504
1603,23.99584131020444
1643,23.99998297722657
1683,24.00000000000001
1723,23.996181361736594
1763,24.000000000000005
1803,23.99999999999999
1843,24.000000000000005
2,1, 7,21, 0, 7, 0.00,10.00,SummerDesignDay
8,18.840052605786814
10,29524226.93259264
1957,0.0
1994,119733104.08773107
2,1, 7,21, 0, 7,10.00,20.00,SummerDesignDay
8,18.87778619489805
10,29524226.93259264
1957,0.0
1994,128813758.53819506
2,1, 7,21, 0, 7,20.00,30.00,SummerDesignDay
8,18.915470425479847
10,29524226.93259264
1957,0.0
1994,138217969.40089045
2,1, 7,21, 0, 7,30.00,40.00,SummerDesignDay
8,18.953096118062495
10,29524226.93259264
1957,0.0
1994,147812741.3058762
2,1, 7,21, 0, 7,40.00,50.00,SummerDesignDay
8,18.99066883495391
10,29524226.93259264
1957,0.0
1994,156936688.0267274
2,1, 7,21, 0, 7,50.00,60.00,SummerDesignDay
8,19.02819215483863
10,29524226.93259264
1957,0.0
1994,165446905.94442228
2,1, 7,21, 0, 7, 0.00,60.00,SummerDesignDay
1003,24.00000000000001
1043,23.999999999999955
1083,23.999999999999998
1123,24.0
1163,23.999999999998207
1203,24.000000000000026
1243,24.00000000000001
1283,24.000000000000005
1323,24.000000000000015
1363,24.000000000000019
1403,24.000000000000005
1443,24.0
1483,23.999999999927949
1523,23.999999999990803
1563,23.999999999999536
1603,23.999999999990157
1643,23.999999999999507
1683,23.999999999999987
1723,23.99999999999911
1763,24.0
1803,24.000000000000019
1843,24.000000000000047
2,1, 7,21, 0, 8, 0.00,10.00,SummerDesignDay
8,19.119090922986229
10,91817108.92077293
1957,0.0
1994,227306140.09120167
2,1, 7,21, 0, 8,10.00,20.00,SummerDesignDay
8,19.209676482065853
10,91817108.92077293
1957,0.0
1994,239920587.3765241
2,1, 7,21, 0, 8,20.00,30.00,SummerDesignDay
8,19.299951906634847
10,91817108.92077293
1957,0.0
1994,247700472.49727569
2,1, 7,21, 0, 8,30.00,40.00,SummerDesignDay
8,19.389928824990219
10,91817108.92077293
1957,0.0
1994,254907322.46123348
2,1, 7,21, 0, 8,40.00,50.00,SummerDesignDay
8,19.4795823892733
10,91817108.92077293
1957,0.0
1994,261718747.93129993
2,1, 7,21, 0, 8,50.00,60.00,SummerDesignDay
8,19.568935475929295
10,91817108.92077293
1957,0.0
1994,268104144.27164398
2,1, 7,21, 0, 8, 0.00,60.00,SummerDesignDay
1003,23.999999999999987
1043,24.00000000000008
1083,24.000000000000229
1123,23.99999999999999
1163,24.00000000000001
1203,24.000000000000019
1243,23.99999999999999
1283,24.000000000000033
1323,23.99999999999999
1363,24.000000000000019
1403,24.0
1443,24.00000000000001
1483,23.999999999999927
1523,23.99999999999992
1563,24.000000000000015
1603,24.000000000000005
1643,24.00000000000003
1683,24.000000000000005
1723,24.000000000000026
1763,24.000000000000019
1803,24.0
1843,24.0
2,1, 7,21, 0, 9, 0.00,10.00,SummerDesignDay
8,19.66844507688812
10,91817108.92077293
1957,0.0
1994,262619370.3196184
2,1, 7,21, 0, 9,10.00,20.00,SummerDesignDay
8,19.767573179707669
10,91817108.92077293
1957,0.0
1994,268240879.64315615
2,1, 7,21, 0, 9,20.00,30.00,SummerDesignDay
8,19.866330746445795
10,91817108.92077293
1957,0.0
1994,273681292.3481558
2,1, 7,21, 0, 9,30.00,40.00,SummerDesignDay
8,19.964711871061558
10,91817108.92077293
1957,0.0
1994,278779404.90014758
2,1, 7,21, 0, 9,40.00,50.00,SummerDesignDay
8,20.062727728864816
10,91817108.92077293
1957,0.0
1994,284010579.6126119
2,1, 7,21, 0, 9,50.00,60.00,SummerDesignDay
8,20.160375627757714
10,91817108.92077293
1957,0.0
1994,289026795.8890967
2,1, 7,21, 0, 9, 0.00,60.00,SummerDesignDay
1003,24.000000000000005
1043,24.000000000000015
1083,24.000000000000104
1123,24.00000000000004
1163,24.0
1203,23.999999999999976
1243,24.0
1283,24.000000000000026
1323,24.000000000000005
1363,24.00000000000004
1403,24.00000000000004
1443,24.0
1483,23.999999999999944
1523,24.000000000000229
1563,24.000000000000058
1603,23.999999999999987
1643,24.0
1683,24.000000000000019
1723,24.000000000000019
1763,24.000000000000019
1803,24.00000000000006
1843,24.000000000000055
2,1, 7,21, 0,10, 0.00,10.00,SummerDesignDay
8,20.247432286023
10,24008722.11905513
1957,0.0
1994,234087594.89853636
2,1, 7,21, 0,10,10.00,20.00,SummerDesignDay
8,20.334198251055687
10,24008722.11905513
1957,0.0
1994,233712542.85254557
2,1, 7,21, 0,10,20.00,30.00,SummerDesignDay
8,20.420674889330156
10,24008722.11905513
1957,0.0
1994,236111479.21584196
2,1, 7,21, 0,10,30.00,40.00,SummerDesignDay
8,20.50686410461129
10,24008722.11905513
1957,0.0
1994,237956742.65175227
2,1, 7,21, 0,10,40.00,50.00,SummerDesignDay
8,20.59277197915242
10,24008722.11905513
1957,0.0
1994,239606160.0403028
2,1, 7,21, 0,10,50.00,60.00,SummerDesignDay
8,20.67839100058158
10,24008722.11905513
1957,0.0
1994,240708423.8381893
2,1, 7,21, 0,10, 0.00,60.00,SummerDesignDay
1003,24.00000000000001
1043,24.000000000000033
1083,23.99999999999997
1123,24.000000000000069
1163,24.000000000000019
1203,24.0
1243,24.0
1283,24.00000000000004
1323,24.0
1363,24.0
1403,24.00000000000004
1443,24.000000000000019
1483,24.00000000000024
1523,24.00000000000016
1563,24.0
1603,24.000000000000019
1643,24.00000000000004
1683,24.00000000000001
1723,24.000000000000055
1763,24.000000000000019
1803,24.000000000000069
1843,24.000000000000044
2,1, 7,21, 0,11, 0.00,10.00,SummerDesignDay
8,20.75370382828009
10,24008722.11905513
1957,0.0
1994,241458924.66528509
2,1, 7,21, 0,11,10.00,20.00,SummerDesignDay
8,20.82879725584293
10,24008722.11905513
1957,0.0
1994,242212737.92214767
2,1, 7,21, 0,11,20.00,30.00,SummerDesignDay
8,20.90366855164364
10,24008722.11905513
1957,0.0
1994,243046713.53144498
2,1, 7,21, 0,11,30.00,40.00,SummerDesignDay
8,20.978327197140595
10,24008722.11905513
1957,0.0
1994,244068792.4701432
2,1, 7,21, 0,11,40.00,50.00,SummerDesignDay
8,21.052770435649987
10,24008722.11905513
1957,0.0
1994,245387024.5547735
2,1, 7,21, 0,11,50.00,60.00,SummerDesignDay
8,21.126998315025806
10,24008722.11905513
1957,0.0
1994,247049491.8685356
2,1, 7,21, 0,11, 0.00,60.00,SummerDesignDay
1003,24.000000000000015
1043,24.00000000000004
1083,24.0
1123,24.000000000000033
1163,24.00000000000003
1203,24.00000000000003
1243,24.000000000000005
1283,24.000000000000005
1323,24.000000000000015
1363,24.0
1403,24.000000000000019
1443,24.000000000000044
1483,24.000000000000015
1523,24.00000000000013
1563,24.000000000000019
1603,23.99999999999996
1643,24.000000000000019
1683,24.00000000000001
1723,23.999999999999969
1763,24.00000000000004
1803,24.0000000000001
1843,24.00000000000001
2,1, 7,21, 0,12, 0.00,10.00,SummerDesignDay
8,21.176364764512436
10,24008722.11905513
1957,0.0
1994,248261216.67412416
2,1, 7,21, 0,12,10.00,20.00,SummerDesignDay
8,21.225636252128049
10,24008722.11905513
1957,0.0
1994,249854588.40877126
2,1, 7,21, 0,12,20.00,30.00,SummerDesignDay
8,21.27481408813442
10,24008722.11905513
1957,0.0
1994,251754605.74502818
2,1, 7,21, 0,12,30.00,40.00,SummerDesignDay
8,21.32389714161367
10,24008722.11905513
1957,0.0
1994,253804653.15937437
2,1, 7,21, 0,12,40.00,50.00,SummerDesignDay
8,21.372882039030619
10,24008722.11905513
1957,0.0
1994,255832209.73786886
2,1, 7,21, 0,12,50.00,60.00,SummerDesignDay
8,21.421778222706306
10,24008722.11905513
1957,0.0
1994,257726033.4324969
2,1, 7,21, 0,12, 0.00,60.00,SummerDesignDay
1003,24.00000000000001
1043,23.99999999999997
1083,24.00000000000011
1123,24.000000000000019
1163,24.00000000000004
1203,24.00000000000004
1243,24.0
1283,24.00000000000006
1323,24.0
1363,24.0
1403,24.0
1443,23.99999999999999
1483,24.00000000000004
1523,24.000000000000019
1563,23.999999999999976
1603,23.999999999999984
1643,24.000000000000005
1683,24.00000000000001
1723,24.00000000000004
1763,24.000000000000019
1803,24.000000000000005
1843,24.000000000000047
2,1, 7,21, 0,13, 0.00,10.00,SummerDesignDay
8,21.460829759656176
10,24008722.11905513
1957,0.0
1994,259227297.77537979
2,1, 7,21, 0,13,10.00,20.00,SummerDesignDay
8,21.499817003159384
10,24008722.11905513
1957,0.0
1994,260951183.85879297
2,1, 7,21, 0,13,20.00,30.00,SummerDesignDay
8,21.53875017563149
10,24008722.11905513
1957,0.0
1994,262669935.01845626
2,1, 7,21, 0,13,30.00,40.00,SummerDesignDay
8,21.57761871831439
10,24008722.11905513
1957,0.0
1994,264279722.96788804
2,1, 7,21, 0,13,40.00,50.00,SummerDesignDay
8,21.616433450967234
10,24008722.11905513
1957,0.0
1994,265848873.40085865
2,1, 7,21, 0,13,50.00,60.00,SummerDesignDay
8,21.655184624488759
10,24008722.11905513
1957,0.0
1994,267513066.69542874
2,1, 7,21, 0,13, 0.00,60.00,SummerDesignDay
1003,24.000000000000015
1043,24.000000000000044
1083,24.000000000000005
1123,24.000000000000019
1163,24.000000000000015
1203,24.000000000000005
1243,24.000000000000005
1283,24.00000000000018
1323,24.00000000000001
1363,24.000000000000055
1403,24.000000000000019
1443,24.000000000000019
1483,24.000000000000069
1523,24.000000000000069
1563,24.000000000000129
1603,24.000000000000069
1643,24.000000000000026
1683,24.0
1723,24.000000000000047
1763,24.0
1803,24.00000000000003
1843,24.00000000000008
2,1, 7,21, 0,14, 0.00,10.00,SummerDesignDay
8,21.67937576104208
10,24008722.11905513
1957,0.0
1994,268916346.3258151
2,1, 7,21, 0,14,10.00,20.00,SummerDesignDay
8,21.703544513972305
10,24008722.11905513
1957,0.0
1994,270670044.2260277
2,1, 7,21, 0,14,20.00,30.00,SummerDesignDay
8,21.727690125397957
10,24008722.11905513
1957,0.0
1994,272827741.2246096
2,1, 7,21, 0,14,30.00,40.00,SummerDesignDay
8,21.751812391480358
10,24008722.11905513
1957,0.0
1994,275425690.91044017
2,1, 7,21, 0,14,40.00,50.00,SummerDesignDay
8,21.7759121945202
10,24008722.11905513
1957,0.0
1994,278433269.6900712
2,1, 7,21, 0,14,50.00,60.00,SummerDesignDay
8,21.799989308895414
10,24008722.11905513
1957,0.0
1994,281785229.94888296
2,1, 7,21, 0,14, 0.00,60.00,SummerDesignDay
1003,24.000000000000005
1043,24.00000000000004
1083,24.000000000000026
1123,24.000000000000005
1163,24.000000000000015
1203,24.0
1243,24.0
1283,24.000000000000076
1323,24.000000000000015
1363,24.000000000000076
1403,24.00000000000007
1443,24.000000000000044
1483,24.00000000000006
1523,23.999999999999944
1563,24.000000000000087
1603,24.000000000000104
1643,24.00000000000016
1683,24.000000000000058
1723,24.00000000000006
1763,24.000000000000033
1803,24.000000000000005
1843,24.000000000000044
2,1, 7,21, 0,15, 0.00,10.00,SummerDesignDay
8,21.799989308895414
10,24008722.11905513
1957,0.0
1994,284510587.402379
2,1, 7,21, 0,15,10.00,20.00,SummerDesignDay
8,21.799989308895414
10,24008722.11905513
1957,0.0
1994,287539901.2211558
2,1, 7,21, 0,15,20.00,30.00,SummerDesignDay
8,21.799989308895414
10,24008722.11905513
1957,0.0
1994,290454694.9535954
2,1, 7,21, 0,15,30.00,40.00,SummerDesignDay
8,21.799989308895414
10,24008722.11905513
1957,0.0
1994,293091107.7694581
2,1, 7,21, 0,15,40.00,50.00,SummerDesignDay
8,21.799989308895414
10,24008722.11905513
1957,0.0
1994,295355467.8881295
2,1, 7,21, 0,15,50.00,60.00,SummerDesignDay
8,21.799989308895414
10,24008722.11905513
1957,0.0
1994,297181944.3077898
2,1, 7,21, 0,15, 0.00,60.00,SummerDesignDay
1003,24.000000000000019
1043,24.00000000000003
1083,23.999999999999959
1123,24.000000000000019
1163,24.00000000000003
1203,24.000000000000087
1243,24.000000000000005
1283,24.000000000000005
1323,24.00000000000001
1363,24.00000000000001
1403,23.99999999999989
1443,24.000000000000015
1483,24.000000000000126
1523,24.000000000000058
1563,24.000000000000033
1603,24.00000000000003
1643,24.00000000000014
1683,24.000000000000026
1723,24.000000000000033
1763,24.000000000000033
1803,24.00000000000008
1843,23.99999999999993
2,1, 7,21, 0,16, 0.00,10.00,SummerDesignDay
8,21.771094855856704
10,24008722.11905513
1957,0.0
1994,297479443.43754699
2,1, 7,21, 0,16,10.00,20.00,SummerDesignDay
8,21.742168014681356
10,24008722.11905513
1957,0.0
1994,297321933.78440836
2,1, 7,21, 0,16,20.00,30.00,SummerDesignDay
8,21.71320780280698
10,24008722.11905513
1957,0.0
1994,296725788.46094039
2,1, 7,21, 0,16,30.00,40.00,SummerDesignDay
8,21.68421463192507
10,24008722.11905513
1957,0.0
1994,295630686.70183786
2,1, 7,21, 0,16,40.00,50.00,SummerDesignDay
8,21.655184624488759
10,24008722.11905513
1957,0.0
1994,294073763.39210107
2,1, 7,21, 0,16,50.00,60.00,SummerDesignDay
8,21.6261256071541
10,24008722.11905513
1957,0.0
1994,291990397.2196305
2,1, 7,21, 0,16, 0.00,60.00,SummerDesignDay
1003,24.00000000000001
1043,24.000000000000019
1083,24.000000000000019
1123,24.000000000000019
1163,24.00000000000003
1203,24.000000000000005
1243,24.000000000000005
1283,24.000000000000115
1323,24.00000000000001
1363,24.00000000000008
1403,23.999999999999998
1443,24.000000000000019
1483,24.00000000000004
1523,24.000000000000119
1563,24.000000000000069
1603,24.000000000000015
1643,24.000000000000033
1683,24.000000000000058
1723,24.000000000000033
1763,24.00000000000001
1803,24.00000000000016
1843,24.00000000000018
2,1, 7,21, 0,17, 0.00,10.00,SummerDesignDay
8,21.587330220761357
10,30010902.64881891
1957,0.0
1994,295196913.48674789
2,1, 7,21, 0,17,10.00,20.00,SummerDesignDay
8,21.548471336507889
10,30010902.64881891
1957,0.0
1994,291990983.52073356
2,1, 7,21, 0,17,20.00,30.00,SummerDesignDay
8,21.509558190151649
10,30010902.64881891
1957,0.0
1994,288090782.93314209
2,1, 7,21, 0,17,30.00,40.00,SummerDesignDay
8,21.470581299934044
10,30010902.64881891
1957,0.0
1994,283789081.51388296
2,1, 7,21, 0,17,40.00,50.00,SummerDesignDay
8,21.431549204917386
10,30010902.64881891
1957,0.0
1994,279149921.0982926
2,1, 7,21, 0,17,50.00,60.00,SummerDesignDay
8,21.392452600030727
10,30010902.64881891
1957,0.0
1994,274177904.25145509
2,1, 7,21, 0,17, 0.00,60.00,SummerDesignDay
1003,24.000000000000015
1043,24.000000000000026
1083,24.000000000000044
1123,24.000000000000015
1163,24.00000000000003
1203,24.000000000000033
1243,24.000000000000015
1283,24.00000000000003
1323,24.00000000000001
1363,23.999999999999849
1403,23.999999999999763
1443,24.00000000000004
1483,24.000000000000015
1523,24.000000000000026
1563,24.000000000000058
1603,23.999999999999969
1643,24.000000000000019
1683,24.000000000000019
1723,24.000000000000019
1763,23.99999999999997
1803,23.99999999999993
1843,23.999999999999728
2,1, 7,21, 0,18, 0.00,10.00,SummerDesignDay
8,21.343500800253975
10,12004361.059527565
1957,0.0
1994,259108216.28806416
2,1, 7,21, 0,18,10.00,20.00,SummerDesignDay
8,21.29445517999728
10,12004361.059527565
1957,0.0
1994,252288810.99969266
2,1, 7,21, 0,18,20.00,30.00,SummerDesignDay
8,21.24531961332415
10,12004361.059527565
1957,0.0
1994,245700258.99046353
2,1, 7,21, 0,18,30.00,40.00,SummerDesignDay
8,21.196085706061159
10,12004361.059527565
1957,0.0
1994,238711780.1168544
2,1, 7,21, 0,18,40.00,50.00,SummerDesignDay
8,21.146756926413827
10,12004361.059527565
1957,0.0
1994,231519911.63449086
2,1, 7,21, 0,18,50.00,60.00,SummerDesignDay
8,21.097333755216899
10,12004361.059527565
1957,0.0
1994,224241280.05764435
2,1, 7,21, 0,18, 0.00,60.00,SummerDesignDay
1003,24.000000000000015
1043,23.999999999999998
1083,24.000000000000026
1123,24.000000000000069
1163,24.000000000000005
1203,24.0
1243,24.00000000000001
1283,24.000000000000033
1323,24.00000000000001
1363,23.999999999999845
1403,23.999999999999984
1443,24.0
1483,24.000000000000044
1523,24.000000000000005
1563,24.000000000000019
1603,24.00000000000001
1643,24.000000000000026
1683,24.000000000000019
1723,24.000000000000058
1763,24.000000000000015
1803,24.00000000000017
1843,24.000000000000019
2,1, 7,21, 0,19, 0.00,10.00,SummerDesignDay
8,21.023019732832933
10,54019624.76787404
1957,0.0
1994,268200252.46106047
2,1, 7,21, 0,19,10.00,20.00,SummerDesignDay
8,20.948490549703029
10,54019624.76787404
1957,0.0
1994,262451326.2056903
2,1, 7,21, 0,19,20.00,30.00,SummerDesignDay
8,20.873745184382885
10,54019624.76787404
1957,0.0
1994,254043603.20718888
2,1, 7,21, 0,19,30.00,40.00,SummerDesignDay
8,20.798782612519024
10,54019624.76787404
1957,0.0
1994,244779378.55225969
2,1, 7,21, 0,19,40.00,50.00,SummerDesignDay
8,20.723605634987398
10,54019624.76787404
1957,0.0
1994,234620846.0693929
2,1, 7,21, 0,19,50.00,60.00,SummerDesignDay
8,20.648205443782066
10,54019624.76787404
1957,0.0
1994,222328449.04349438
2,1, 7,21, 0,19, 0.00,60.00,SummerDesignDay
1003,24.000000000000005
1043,24.000000000000069
1083,24.000000000000047
1123,24.0
1163,24.000000000000026
1203,24.00000000000004
1243,24.000000000000005
1283,24.000000000000047
1323,24.00000000000001
1363,23.999999999999998
1403,24.000000000000246
1443,24.00000000000003
1483,24.000000000000047
1523,24.00000000000003
1563,24.00000000000004
1603,24.000000000000044
1643,24.00000000000006
1683,24.0
1723,24.000000000000033
1763,23.999999999999998
1803,24.00000000000008
1843,23.999999999999948
2,1, 7,21, 0,20, 0.00,10.00,SummerDesignDay
8,20.59277197915242
10,132859021.19666687
1957,0.0
1994,258830129.28255654
2,1, 7,21, 0,20,10.00,20.00,SummerDesignDay
8,20.537219972964399
10,132859021.19666687
1957,0.0
1994,253452758.51463089
2,1, 7,21, 0,20,20.00,30.00,SummerDesignDay
8,20.48154799091199
10,132859021.19666687
1957,0.0
1994,243401327.62453027
2,1, 7,21, 0,20,30.00,40.00,SummerDesignDay
8,20.425752225515759
10,132859021.19666687
1957,0.0
1994,233777193.61205025
2,1, 7,21, 0,20,40.00,50.00,SummerDesignDay
8,20.369840248455387
10,132859021.19666687
1957,0.0
1994,227543863.82673059
2,1, 7,21, 0,20,50.00,60.00,SummerDesignDay
8,20.313807280186916
10,132859021.19666687
1957,0.0
1994,222869388.94923846
2,1, 7,21, 0,20, 0.00,60.00,SummerDesignDay
1003,24.000000000000015
1043,23.99999999999999
1083,24.00000000000003
1123,24.00000000000003
1163,23.99999999999997
1203,24.000000000000015
1243,24.000000000000005
1283,24.000000000000026
1323,24.00000000000003
1363,24.000000000000119
1403,24.000000000000115
1443,24.00000000000001
1483,24.000000000000005
1523,24.000000000000033
1563,24.00000000000003
1603,24.00000000000003
1643,24.000000000000044
1683,24.000000000000019
1723,24.0
1763,24.000000000000019
1803,23.999999999999998